
     Program PWSCF v.7.5 starts on  9Dec2025 at 21:37:58 

     This program is part of the open-source Quantum ESPRESSO suite
     for quantum simulation of materials; please cite
         "P. Giannozzi et al., J. Phys.:Condens. Matter 21 395502 (2009);
         "P. Giannozzi et al., J. Phys.:Condens. Matter 29 465901 (2017);
         "P. Giannozzi et al., J. Chem. Phys. 152 154105 (2020);
          URL http://www.quantum-espresso.org", 
     in publications or presentations arising from this work. More details at
     http://www.quantum-espresso.org/quote

     Serial version
     22177 MiB available memory on the printing compute node when the environment starts

     Reading input from GaAs.scf.in

     Current dimensions of program PWSCF are:
     Max number of different atomic species (ntypx) = 10
     Max number of k-points (npk) =  40000
     Max angular momentum in pseudopotentials (lmaxx) =  4
     file Ga.pbesol-dnl-rrkjus_psl.1.0.0.UPF: wavefunction(s)  3D renormalized


     G-vector sticks info
     --------------------
     sticks:   dense  smooth     PW     G-vecs:    dense   smooth      PW
     Sum        1573     769    241                41151    14361    2445

     Using Slab Decomposition



     bravais-lattice index     =            2
     lattice parameter (alat)  =      10.6890  a.u.
     unit-cell volume          =     305.3201 (a.u.)^3
     number of atoms/cell      =            2
     number of atomic types    =            2
     number of electrons       =        18.00
     number of Kohn-Sham states=           36
     kinetic-energy cutoff     =      50.0000  Ry
     charge density cutoff     =     400.0000  Ry
     scf convergence threshold =      1.0E-09
     mixing beta               =       0.3000
     number of iterations used =            8  plain     mixing
     Exchange-correlation= PBESOL
                           (   1   4  10   8   0   0   0)
     Hubbard projectors: ortho-atomic
     Hubbard parameters of DFT+U (Dudarev formulation) in eV:
     U(Ga-3d) =  3.0000
     U(As-4p) =  3.0000

     Internal variables: lda_plus_u =T, lda_plus_u_kind = 0

     Internal variables: orbital_resolved =F, hub_pot_fix =F, apply_U = F

     celldm(1)=  10.689034  celldm(2)=   0.000000  celldm(3)=   0.000000
     celldm(4)=   0.000000  celldm(5)=   0.000000  celldm(6)=   0.000000

     crystal axes: (cart. coord. in units of alat)
               a(1) = (  -0.500000   0.000000   0.500000 )  
               a(2) = (   0.000000   0.500000   0.500000 )  
               a(3) = (  -0.500000   0.500000   0.000000 )  

     reciprocal axes: (cart. coord. in units 2 pi/alat)
               b(1) = ( -1.000000 -1.000000  1.000000 )  
               b(2) = (  1.000000  1.000000  1.000000 )  
               b(3) = ( -1.000000  1.000000 -1.000000 )  


     PseudoPot. # 1 for Ga read from file:
     /home/kirill/Desktop/src/q-e-pseudos/Ga.pbesol-dnl-rrkjus_psl.1.0.0.UPF
     MD5 check sum: af75e18138b17f4c63d92c4186babeee
     Pseudo is Ultrasoft + core correction, Zval = 13.0
     Generated using &quot;atomic&quot; code by A. Dal Corso  v.6.3
     Using radial grid of 1205 points,  6 beta functions with: 
                l(1) =   0
                l(2) =   0
                l(3) =   1
                l(4) =   1
                l(5) =   2
                l(6) =   2
     Q(r) pseudized with 0 coefficients 


     PseudoPot. # 2 for As read from file:
     /home/kirill/Desktop/src/q-e-pseudos/As.pbesol-n-rrkjus_psl.0.2.UPF
     MD5 check sum: aea6fa71b557bb134146747eb310c298
     Pseudo is Ultrasoft + core correction, Zval =  5.0
     Generated using "atomic" code by A. Dal Corso  v.5.0.2 svn rev. 9415
     Using radial grid of 1209 points,  4 beta functions with: 
                l(1) =   0
                l(2) =   0
                l(3) =   1
                l(4) =   1
     Q(r) pseudized with 0 coefficients 


     atomic species   valence    mass     pseudopotential
     Ga               13.00    69.72300     Ga( 1.00)
     As                5.00    74.92159     As( 1.00)

     24 Sym. Ops. (no inversion) found



   Cartesian axes

     site n.     atom                  positions (alat units)
         1        Ga     tau(   1) = (   0.0000000   0.0000000   0.0000000  )
         2        As     tau(   2) = (  -0.2500000   0.2500000   0.2500000  )

     number of k points=    29
                       cart. coord. in units 2pi/alat
        k(    1) = (   0.0000000   0.0000000   0.0000000), wk =   0.0039062
        k(    2) = (  -0.1250000   0.1250000  -0.1250000), wk =   0.0312500
        k(    3) = (  -0.2500000   0.2500000  -0.2500000), wk =   0.0312500
        k(    4) = (  -0.3750000   0.3750000  -0.3750000), wk =   0.0312500
        k(    5) = (   0.5000000  -0.5000000   0.5000000), wk =   0.0156250
        k(    6) = (   0.0000000   0.2500000   0.0000000), wk =   0.0234375
        k(    7) = (  -0.1250000   0.3750000  -0.1250000), wk =   0.0937500
        k(    8) = (  -0.2500000   0.5000000  -0.2500000), wk =   0.0937500
        k(    9) = (   0.6250000  -0.3750000   0.6250000), wk =   0.0937500
        k(   10) = (   0.5000000  -0.2500000   0.5000000), wk =   0.0937500
        k(   11) = (   0.3750000  -0.1250000   0.3750000), wk =   0.0937500
        k(   12) = (   0.2500000   0.0000000   0.2500000), wk =   0.0468750
        k(   13) = (   0.0000000   0.5000000   0.0000000), wk =   0.0234375
        k(   14) = (  -0.1250000   0.6250000  -0.1250000), wk =   0.0937500
        k(   15) = (   0.7500000  -0.2500000   0.7500000), wk =   0.0937500
        k(   16) = (   0.6250000  -0.1250000   0.6250000), wk =   0.0937500
        k(   17) = (   0.5000000   0.0000000   0.5000000), wk =   0.0468750
        k(   18) = (   0.0000000   0.7500000   0.0000000), wk =   0.0234375
        k(   19) = (   0.8750000  -0.1250000   0.8750000), wk =   0.0937500
        k(   20) = (   0.7500000   0.0000000   0.7500000), wk =   0.0468750
        k(   21) = (   0.0000000  -1.0000000   0.0000000), wk =   0.0117188
        k(   22) = (  -0.2500000   0.5000000   0.0000000), wk =   0.0937500
        k(   23) = (   0.6250000  -0.3750000   0.8750000), wk =   0.1875000
        k(   24) = (   0.5000000  -0.2500000   0.7500000), wk =   0.0937500
        k(   25) = (   0.7500000  -0.2500000   1.0000000), wk =   0.0937500
        k(   26) = (   0.6250000  -0.1250000   0.8750000), wk =   0.1875000
        k(   27) = (   0.5000000   0.0000000   0.7500000), wk =   0.0937500
        k(   28) = (  -0.2500000  -1.0000000   0.0000000), wk =   0.0468750
        k(   29) = (  -0.5000000  -1.0000000   0.0000000), wk =   0.0234375

     Dense  grid:    41151 G-vectors     FFT dimensions: (  50,  50,  50)

     Smooth grid:    14361 G-vectors     FFT dimensions: (  36,  36,  36)

     Estimated max dynamical RAM per process >     185.14 MB

     Initial potential from superposition of free atoms

     starting charge      17.9971, renormalised to      18.0000

     STARTING HUBBARD OCCUPATIONS:

     =================== HUBBARD OCCUPATIONS ===================
     ------------------------ ATOM    1 ------------------------
     Tr[ns(  1)] =  10.00000
     eigenvalues:
       1.000  1.000  1.000  1.000  1.000
     eigenvectors (columns):
       1.000  0.000  0.000  0.000  0.000
       0.000  1.000  0.000  0.000  0.000
       0.000  0.000  1.000  0.000  0.000
       0.000  0.000  0.000  1.000  0.000
       0.000  0.000  0.000  0.000  1.000
     occupation matrix ns (before diag.):
       1.000  0.000  0.000  0.000  0.000
       0.000  1.000  0.000  0.000  0.000
       0.000  0.000  1.000  0.000  0.000
       0.000  0.000  0.000  1.000  0.000
       0.000  0.000  0.000  0.000  1.000
     ------------------------ ATOM    2 ------------------------
     Tr[ns(  2)] =   3.00000
     eigenvalues:
       0.500  0.500  0.500
     eigenvectors (columns):
       1.000  0.000  0.000
       0.000  1.000  0.000
       0.000  0.000  1.000
     occupation matrix ns (before diag.):
       0.500  0.000  0.000
       0.000  0.500  0.000
       0.000  0.000  0.500

     Number of occupied Hubbard levels =   13.0000

     Atomic wfc used for Hubbard projectors are orthogonalized

     Starting wfcs are   13 randomized atomic wfcs +   23 random wfcs

     total cpu time spent up to now is        3.0 secs

     Self-consistent Calculation

     iteration #  1     ecut=    50.00 Ry     beta= 0.30
     Davidson diagonalization with overlap
     ethr =  1.00E-02,  avg # of iterations =  7.0

     =================== HUBBARD OCCUPATIONS ===================
     ------------------------ ATOM    1 ------------------------
     Tr[ns(  1)] =   9.98682
     eigenvalues:
       0.998  0.998  0.998  0.999  0.999
     eigenvectors (columns):
      -0.000 -0.000  0.000 -0.475  0.880
      -0.346  0.288  0.893 -0.000 -0.000
      -0.567  0.694 -0.444 -0.000 -0.000
       0.000  0.000 -0.000 -0.880 -0.475
       0.747  0.660  0.077  0.000  0.000
     occupation matrix ns (before diag.):
       0.999 -0.000 -0.000 -0.000  0.000
      -0.000  0.998 -0.000  0.000  0.000
      -0.000 -0.000  0.998  0.000  0.000
      -0.000  0.000  0.000  0.999 -0.000
       0.000  0.000  0.000 -0.000  0.998
     ------------------------ ATOM    2 ------------------------
     Tr[ns(  2)] =   3.67237
     eigenvalues:
       0.612  0.612  0.612
     eigenvectors (columns):
       0.793 -0.279  0.542
       0.588  0.120 -0.800
       0.158  0.953  0.259
     occupation matrix ns (before diag.):
       0.612 -0.000  0.000
      -0.000  0.612 -0.000
       0.000 -0.000  0.612

     Number of occupied Hubbard levels =   13.6592

     Threshold (ethr) on eigenvalues was too large:
     Diagonalizing with lowered threshold

     Davidson diagonalization with overlap
     ethr =  2.59E-04,  avg # of iterations =  1.5

     total cpu time spent up to now is       18.2 secs

     total energy              =    -188.83792070 Ry
     estimated scf accuracy    <       0.04645916 Ry

     iteration #  2     ecut=    50.00 Ry     beta= 0.30
     Davidson diagonalization with overlap
     ethr =  2.58E-04,  avg # of iterations =  1.0

     total cpu time spent up to now is       22.8 secs

     total energy              =    -188.83271262 Ry
     estimated scf accuracy    <       0.01690480 Ry

     iteration #  3     ecut=    50.00 Ry     beta= 0.30
     Davidson diagonalization with overlap
     ethr =  9.39E-05,  avg # of iterations =  1.3

     total cpu time spent up to now is       27.5 secs

     total energy              =    -188.83491014 Ry
     estimated scf accuracy    <       0.00253179 Ry

     iteration #  4     ecut=    50.00 Ry     beta= 0.30
     Davidson diagonalization with overlap
     ethr =  1.41E-05,  avg # of iterations =  2.0

     total cpu time spent up to now is       32.4 secs

     total energy              =    -188.83506344 Ry
     estimated scf accuracy    <       0.00075549 Ry

     iteration #  5     ecut=    50.00 Ry     beta= 0.30
     Davidson diagonalization with overlap
     ethr =  4.20E-06,  avg # of iterations =  2.1

     total cpu time spent up to now is       37.3 secs

     total energy              =    -188.83504275 Ry
     estimated scf accuracy    <       0.00009769 Ry

     iteration #  6     ecut=    50.00 Ry     beta= 0.30
     Davidson diagonalization with overlap
     ethr =  5.43E-07,  avg # of iterations =  3.9

     total cpu time spent up to now is       42.4 secs

     total energy              =    -188.83506000 Ry
     estimated scf accuracy    <       0.00000078 Ry

     iteration #  7     ecut=    50.00 Ry     beta= 0.30
     Davidson diagonalization with overlap
     ethr =  4.31E-09,  avg # of iterations =  2.8

     total cpu time spent up to now is       47.6 secs

     total energy              =    -188.83506020 Ry
     estimated scf accuracy    <       0.00000013 Ry

     iteration #  8     ecut=    50.00 Ry     beta= 0.30
     Davidson diagonalization with overlap
     ethr =  6.98E-10,  avg # of iterations =  1.1

     total cpu time spent up to now is       52.2 secs

     total energy              =    -188.83506022 Ry
     estimated scf accuracy    <       0.00000006 Ry

     iteration #  9     ecut=    50.00 Ry     beta= 0.30
     Davidson diagonalization with overlap
     ethr =  3.52E-10,  avg # of iterations =  1.0

     total cpu time spent up to now is       56.8 secs

     End of self-consistent calculation

     =================== HUBBARD OCCUPATIONS ===================
     ------------------------ ATOM    1 ------------------------
     Tr[ns(  1)] =   9.98915
     eigenvalues:
       0.999  0.999  0.999  0.999  0.999
     eigenvectors (columns):
      -0.000 -0.000  0.000 -0.438  0.899
      -0.339  0.299  0.892 -0.000 -0.000
      -0.564  0.694 -0.448 -0.000 -0.000
       0.000  0.000 -0.000 -0.899 -0.438
       0.753  0.655  0.066  0.000  0.000
     occupation matrix ns (before diag.):
       0.999 -0.000 -0.000 -0.000  0.000
      -0.000  0.999 -0.000  0.000  0.000
      -0.000 -0.000  0.999  0.000  0.000
      -0.000  0.000  0.000  0.999 -0.000
       0.000  0.000  0.000 -0.000  0.999
     ------------------------ ATOM    2 ------------------------
     Tr[ns(  2)] =   3.59146
     eigenvalues:
       0.599  0.599  0.599
     eigenvectors (columns):
       0.539 -0.534  0.651
       0.739 -0.071 -0.670
       0.405  0.842  0.356
     occupation matrix ns (before diag.):
       0.599 -0.000  0.000
      -0.000  0.599 -0.000
       0.000 -0.000  0.599

     Number of occupied Hubbard levels =   13.5806

          k = 0.0000 0.0000 0.0000 (  1837 PWs)   bands (ev):

    -9.7603  -9.7603  -9.7603  -9.6966  -9.6966  -6.1297   6.3475   6.3475
     6.3475   7.0283  10.2156  10.2156  10.2156  14.0324  16.7145  16.7145
    18.1095  18.1095  18.1095  20.8774  32.1024  32.1024  32.1024  33.1162
    33.1162  33.1162  34.3875  34.3875  34.4875  34.4875  34.4875  41.4386
    46.0401  46.0401  46.0402  46.2658

          k =-0.1250 0.1250-0.1250 (  1841 PWs)   bands (ev):

    -9.7670  -9.7573  -9.7573  -9.6968  -9.6968  -5.9574   4.4434   6.1196
     6.1196   8.0587  10.5585  10.5585  10.6452  14.9934  15.8243  15.8243
    17.3944  19.7212  19.7212  22.3579  29.0177  29.2944  29.2944  33.0139
    33.0139  33.9209  33.9209  34.6644  35.5412  38.5138  38.5138  41.2466
    42.8196  42.8196  43.0668  44.5739

          k =-0.2500 0.2500-0.2500 (  1847 PWs)   bands (ev):

    -9.7833  -9.7511  -9.7511  -9.6960  -9.6960  -5.4634   2.2710   5.6898
     5.6898   7.9176  11.0664  11.0664  12.3807  15.4376  15.5774  15.5774
    18.4314  22.3736  22.3736  25.0597  25.5611  25.5611  25.7356  33.4971
    33.4971  34.2954  34.2954  35.1645  36.1483  37.9046  38.0281  38.0281
    42.0061  42.0061  42.6819  42.6819

          k =-0.3750 0.3750-0.3750 (  1838 PWs)   bands (ev):

    -9.7991  -9.7464  -9.7464  -9.6935  -9.6935  -4.7866   0.5228   5.3570
     5.3570   7.5873  11.1432  11.1432  14.0703  15.4359  16.7698  16.7698
    20.1931  22.1101  22.1101  23.8942  25.6522  25.6522  28.6353  31.9361
    33.2192  33.2192  34.2913  34.2913  35.1259  35.1259  35.8420  37.1203
    39.5850  40.2189  40.2190  40.9316

          k = 0.5000-0.5000 0.5000 (  1802 PWs)   bands (ev):

    -9.8054  -9.7446  -9.7446  -9.6915  -9.6915  -4.3949  -0.2338   5.2374
     5.2374   7.4621  11.0872  11.0872  14.1961  16.8462  18.4905  18.4905
    18.9626  19.7657  19.7657  26.0529  28.2087  28.9545  28.9545  29.6463
    29.6463  32.7200  33.1978  34.6202  34.6202  35.3147  35.3147  36.2291
    39.4406  39.4406  39.9366  40.2107

          k = 0.0000 0.2500 0.0000 (  1840 PWs)   bands (ev):

    -9.7725  -9.7545  -9.7545  -9.6992  -9.6947  -5.8994   4.4242   5.7064
     5.7064   8.7818   9.5770  11.1654  11.1654  14.5415  15.3632  16.9768
    18.6504  18.6504  19.3801  23.2367  28.7037  28.7037  29.7674  30.3367
    33.2861  33.6624  33.6624  35.9165  37.9986  37.9986  38.9878  40.9093
    41.7906  41.7906  42.3519  44.1300

          k =-0.1250 0.3750-0.1250 (  1824 PWs)   bands (ev):

    -9.7857  -9.7490  -9.7477  -9.7008  -9.6926  -5.5092   2.7840   5.2100
     5.2264   8.9553   9.9100  11.9015  11.9835  14.3650  16.5887  16.7834
    18.4223  20.5243  21.7458  25.4185  25.4360  25.7540  28.8650  30.0839
    30.9565  34.0944  35.1403  36.6666  38.0988  38.4524  39.2956  39.3052
    40.2216  40.9005  41.3031  42.0589

          k =-0.2500 0.5000-0.2500 (  1840 PWs)   bands (ev):

    -9.7995  -9.7452  -9.7425  -9.6996  -9.6910  -4.8741   1.0274   4.6201
     4.9407   8.6884  10.6210  12.0354  12.6488  15.7771  16.6999  17.6041
    19.9104  21.8937  22.9548  23.5135  24.9958  26.0249  28.9311  30.6492
    30.9230  32.0607  34.6967  34.7230  36.1107  36.4219  37.1300  37.5356
    39.5060  39.6459  40.8708  41.3754

          k = 0.6250-0.3750 0.6250 (  1823 PWs)   bands (ev):

    -9.8067  -9.7435  -9.7407  -9.6956  -9.6910  -4.3208  -0.0755   4.1931
     4.9332   8.5094  10.7746  11.7624  14.1902  16.1039  17.8483  18.4844
    19.1229  20.0902  22.6887  25.3757  26.8695  27.8927  28.7339  30.2684
    31.1185  31.6277  32.2953  32.7390  35.2205  35.3885  35.8939  36.0315
    36.8007  39.7580  40.4798  40.5543

          k = 0.5000-0.2500 0.5000 (  1823 PWs)   bands (ev):

    -9.8039  -9.7438  -9.7423  -9.6943  -9.6930  -4.4607   0.1811   4.0548
     5.1971   8.5478  10.9854  11.5118  14.1923  16.1958  16.2882  18.1458
    19.6061  21.8154  22.6242  23.9983  25.9535  28.3333  29.6578  30.4379
    30.9654  31.4376  31.7438  33.3632  35.1905  35.7707  36.2612  36.3990
    37.5406  39.8144  40.7132  40.8283

          k = 0.3750-0.1250 0.3750 (  1839 PWs)   bands (ev):

    -9.7924  -9.7473  -9.7463  -9.6982  -9.6933  -5.1048   1.5766   4.2792
     5.6498   8.7640  11.1929  11.2133  12.5555  14.8442  16.2422  17.6384
    19.3539  21.8799  22.2743  24.8596  25.6000  26.0321  27.3718  30.2301
    31.0383  34.3415  34.4805  35.2504  35.5731  37.0974  37.9102  38.7427
    39.4991  40.0150  41.8805  42.1684

          k = 0.2500 0.0000 0.2500 (  1839 PWs)   bands (ev):

    -9.7774  -9.7541  -9.7514  -9.6986  -9.6948  -5.6757   3.2761   5.0114
     6.0800   8.7521  10.5228  10.6865  11.8485  14.7941  15.7558  16.2400
    18.5596  19.3693  22.0554  24.2619  25.3373  28.3794  29.3618  29.9228
    31.1884  33.9648  34.9429  37.5777  38.3178  38.8159  38.8399  39.9297
    40.1092  40.9233  41.9187  43.3007

          k = 0.0000 0.5000 0.0000 (  1828 PWs)   bands (ev):

    -9.8000  -9.7402  -9.7402  -9.7058  -9.6895  -5.2314   2.3316   4.6897
     4.6897   8.4013   9.7091  13.0800  13.0800  13.9287  17.7590  17.9094
    20.2847  20.2847  20.8397  24.9732  24.9732  26.6563  26.7841  27.9644
    33.9286  34.4403  34.4403  35.0775  36.1453  36.1453  37.3613  38.1921
    42.2355  42.7540  42.7540  42.9105

          k =-0.1250 0.6250-0.1250 (  1825 PWs)   bands (ev):

    -9.8119  -9.7353  -9.7337  -9.7072  -9.6874  -4.6878   1.1534   3.9693
     4.3642   8.5292   9.7550  12.8971  13.6708  15.9840  18.4721  18.6770
    20.4782  21.9713  22.3864  22.7180  23.8167  26.4482  26.6917  30.3360
    31.2734  31.7799  33.7366  34.0168  35.0909  35.5963  36.7914  38.1751
    39.9995  40.5385  41.6575  42.5866

          k = 0.7500-0.2500 0.7500 (  1821 PWs)   bands (ev):

    -9.8154  -9.7362  -9.7310  -9.7042  -9.6883  -4.1027   0.1400   3.1506
     4.3478   8.6155  11.1331  12.6998  13.4249  16.8714  18.6357  19.0966
    19.6382  20.7245  24.2191  25.2186  25.9058  27.1303  27.3368  27.5749
    29.4388  31.7479  32.1341  33.1000  34.4534  35.3361  36.1657  36.3985
    37.5240  38.5175  40.4030  41.7281

          k = 0.6250-0.1250 0.6250 (  1817 PWs)   bands (ev):

    -9.8111  -9.7395  -9.7331  -9.6988  -9.6927  -4.0087   0.0117   2.7350
     4.6417   8.8286  11.8790  12.9115  13.8164  15.0633  16.2999  19.1379
    21.2230  23.2693  23.3202  24.1069  27.0996  27.2827  28.4370  29.0575
    29.0931  31.4933  31.5887  32.2385  32.9196  34.3055  35.7844  36.3632
    37.3638  39.0878  40.5056  41.6209

          k = 0.5000 0.0000 0.5000 (  1829 PWs)   bands (ev):

    -9.8026  -9.7428  -9.7395  -9.6973  -9.6944  -4.5222   0.7765   3.0189
     5.1583   9.1692  12.0402  12.1295  12.2869  14.9244  16.8743  19.2072
    19.8869  20.9280  24.0968  25.1008  26.0835  26.8632  28.2941  28.9488
    30.3738  31.8914  32.6479  33.5025  33.7463  35.2077  36.1276  37.6776
    38.1660  41.8034  42.1389  42.1804

          k = 0.0000 0.7500 0.0000 (  1808 PWs)   bands (ev):

    -9.8254  -9.7256  -9.7256  -9.7123  -9.6845  -4.2683   0.5015   3.9691
     3.9691   7.8729   8.6949  15.2123  15.2123  15.8761  19.0181  20.0782
    21.7701  21.7701  23.0076  23.0076  23.2224  23.8528  24.8096  30.4031
    31.0831  31.0831  31.7083  33.7693  35.3254  35.6289  35.6289  38.6352
    40.7260  40.7260  40.8449  42.9278

          k = 0.8750-0.1250 0.8750 (  1806 PWs)   bands (ev):

    -9.8289  -9.7249  -9.7225  -9.7120  -9.6844  -3.8015  -0.1447   3.2745
     3.8849   8.1112   9.0698  14.9646  15.4578  17.2270  19.1076  19.4363
    20.8604  21.8130  23.2462  23.8231  25.2238  25.4563  26.7365  27.1153
    29.0846  29.3017  31.2301  32.2325  35.6580  36.1517  36.6998  38.3143
    39.4711  40.1294  40.7362  41.8139

          k = 0.7500 0.0000 0.7500 (  1822 PWs)   bands (ev):

    -9.8217  -9.7316  -9.7253  -9.7066  -9.6886  -3.6776  -0.2275   2.5231
     4.1315   8.3657  11.0593  14.4307  14.5372  15.1456  17.1250  20.7509
    22.1528  23.0198  23.1075  24.5125  24.6037  27.4252  27.9801  28.3141
    28.5101  29.1986  30.8373  31.8446  32.8260  35.2517  36.4722  37.2791
    37.8818  40.1284  40.9102  41.3615

          k = 0.0000-1.0000 0.0000 (  1772 PWs)   bands (ev):

    -9.8349  -9.7193  -9.7193  -9.7151  -9.6820  -3.6353  -0.4257   3.7163
     3.7163   7.9074   8.0035  16.6360  16.6360  17.4738  19.7989  20.0014
    20.0014  20.1492  22.1630  26.0219  26.4780  26.4780  26.5998  26.6287
    26.8258  26.8258  28.2538  35.2879  36.4650  36.4650  37.6809  39.5259
    39.5259  40.5587  40.6822  41.4339

          k =-0.2500 0.5000 0.0000 (  1833 PWs)   bands (ev):

    -9.7984  -9.7437  -9.7410  -9.7028  -9.6907  -5.0393   1.7390   3.9853
     5.0785   9.4457  10.0093  11.7959  12.7948  14.9751  17.4786  17.9358
    19.5819  21.1984  22.2057  23.9609  25.2326  26.7633  28.2832  29.7356
    30.1952  32.4351  33.7251  34.8513  37.0827  38.1626  38.6280  38.8736
    39.3874  39.9813  41.3103  41.5420

          k = 0.6250-0.3750 0.8750 (  1820 PWs)   bands (ev):

    -9.8074  -9.7418  -9.7353  -9.7009  -9.6906  -4.4070   0.5255   3.3345
     4.6462   9.5107  10.6422  11.9690  13.3854  16.0333  17.3778  18.7993
    19.9301  21.7751  22.6641  24.7955  25.8121  27.2296  28.1709  29.5670
    30.3943  31.6724  32.4767  32.7753  33.6051  35.8265  36.4284  37.5173
    39.0326  39.7256  40.1275  40.6574

          k = 0.5000-0.2500 0.7500 (  1808 PWs)   bands (ev):

    -9.8105  -9.7416  -9.7331  -9.6985  -9.6915  -4.0488  -0.0771   3.1622
     4.4457   9.4591  10.5938  12.7957  14.1591  15.0288  18.1470  18.7070
    19.2601  22.5998  23.7154  24.9493  26.1075  27.6662  28.5959  29.1535
    30.6540  31.1865  31.4694  32.0343  33.2874  35.3725  35.7764  36.0516
    36.7705  39.1311  40.0007  40.3522

          k = 0.7500-0.2500 1.0000 (  1821 PWs)   bands (ev):

    -9.8195  -9.7331  -9.7268  -9.7081  -9.6869  -4.1537   0.3678   3.3436
     3.9095   9.0595   9.6169  12.7419  15.1273  16.5316  18.3753  19.9100
    20.7929  21.5969  22.3224  23.6051  25.1830  26.3017  27.1035  28.7524
    29.6489  31.0097  32.7203  33.4437  34.0770  34.5311  36.1352  37.9182
    39.0021  39.8607  40.2477  41.6833

          k = 0.6250-0.1250 0.8750 (  1819 PWs)   bands (ev):

    -9.8186  -9.7363  -9.7244  -9.7052  -9.6893  -3.7484  -0.1247   2.7191
     3.7331   9.4103  11.1266  12.3620  14.3216  15.9451  18.7623  19.4632
    20.7983  22.7891  23.7445  24.7091  25.5027  26.8388  27.5857  28.3723
    29.2512  30.2507  31.3755  32.3785  33.5072  34.3089  34.8654  36.7962
    37.8647  38.3539  39.4741  41.2532

          k = 0.5000 0.0000 0.7500 (  1823 PWs)   bands (ev):

    -9.8135  -9.7400  -9.7277  -9.7016  -9.6918  -3.8936   0.0496   2.5757
     4.0728   9.7548  11.6878  11.8620  14.2112  15.2044  16.9930  20.5900
    21.0424  22.0423  23.6062  24.5302  27.1473  27.2644  27.7993  28.6979
    28.7434  30.6201  31.7927  32.6778  32.9047  34.8761  35.2213  35.4244
    37.5664  37.8345  40.4938  41.9738

          k =-0.2500-1.0000 0.0000 (  1810 PWs)   bands (ev):

    -9.8278  -9.7279  -9.7208  -9.7104  -9.6857  -3.6084  -0.3326   3.2344
     3.3522   8.9973   9.1339  14.6199  14.8269  17.4983  18.8435  19.9340
    20.1598  23.1952  24.1032  24.3724  24.9616  25.1826  25.8115  28.7922
    29.3496  29.4363  29.9846  31.7937  33.2266  35.9377  36.6035  38.2850
    39.4150  39.9519  40.0961  41.7844

          k =-0.5000-1.0000 0.0000 (  1800 PWs)   bands (ev):

    -9.8184  -9.7379  -9.7214  -9.7047  -9.6900  -3.5809  -0.2267   2.8282
     3.0584  11.0272  11.1068  11.9288  12.5000  17.5561  18.7939  19.8858
    20.3451  23.3636  24.3831  24.3967  24.9777  26.2631  27.7437  28.1833
    29.8269  31.1415  31.4315  33.2605  33.3722  33.5876  33.8255  34.1790
    34.8827  40.7878  41.6728  41.8569

     highest occupied, lowest unoccupied level (ev):     6.3475    7.0283

!    total energy              =    -188.83506023 Ry
     estimated scf accuracy    <          8.4E-10 Ry

     The total energy is the sum of the following terms:
     one-electron contribution =    -118.63039953 Ry
     hartree contribution      =      74.86664982 Ry
     xc contribution           =     -52.26561954 Ry
     ewald contribution        =     -92.96582945 Ry
     Hubbard energy            =       0.16013846 Ry

     convergence has been achieved in   9 iterations
     force_hub    :      1.51s CPU      1.51s WALL (       1 calls)
     dndtau       :      1.22s CPU      1.23s WALL (     174 calls)
     dprojdtau    :      0.23s CPU      0.24s WALL (     348 calls)
     calc_doverla :      0.40s CPU      0.41s WALL (     174 calls)
     matel_dSdtau :      0.93s CPU      0.94s WALL (     348 calls)

     Forces acting on atoms (cartesian axes, Ry/au):

     atom    1 type  1   force =     0.00000000    0.00000000   -0.00000000
     atom    2 type  2   force =     0.00000000    0.00000000    0.00000000

     Total force =     0.000000     Total SCF correction =     0.000000

     Writing all to output data dir ./outdir/GaAs.save/ :
     XML data file, charge density, pseudopotentials, collected wavefunctions

     init_run     :      2.79s CPU      2.88s WALL (       1 calls)
     electrons    :     52.78s CPU     53.80s WALL (       1 calls)
     forces       :      2.08s CPU      2.12s WALL (       1 calls)

     Called by init_run:
     wfcinit      :      1.73s CPU      1.76s WALL (       1 calls)
     potinit      :      0.13s CPU      0.13s WALL (       1 calls)
     hinit0       :      0.79s CPU      0.80s WALL (       1 calls)

     Called by electrons:
     c_bands      :     43.46s CPU     43.73s WALL (      10 calls)
     sum_band     :      7.56s CPU      8.01s WALL (      10 calls)
     v_of_rho     :      0.61s CPU      0.61s WALL (      10 calls)
     newd         :      1.23s CPU      1.58s WALL (      10 calls)
     mix_rho      :      0.06s CPU      0.06s WALL (      10 calls)

     Called by c_bands:
     init_us_2    :      0.53s CPU      0.53s WALL (     696 calls)
     cegterg      :     42.89s CPU     43.16s WALL (     290 calls)

     Called by *egterg:
     cdiaghg      :      1.64s CPU      1.65s WALL (     950 calls)
     h_psi        :     26.48s CPU     26.68s WALL (    1008 calls)
     s_psi        :      1.57s CPU      1.58s WALL (    1095 calls)
     g_psi        :      0.27s CPU      0.27s WALL (     689 calls)

     Called by h_psi:
     h_psi:calbec :      1.81s CPU      1.82s WALL (    1008 calls)
     vloc_psi     :     22.10s CPU     22.27s WALL (    1008 calls)
                                        0.00s GPU  (    1008 calls)
     add_vuspsi   :      1.46s CPU      1.47s WALL (    1008 calls)
     vhpsi        :      1.02s CPU      1.02s WALL (    1008 calls)

     General routines
     calbec       :      4.72s CPU      4.74s WALL (    4220 calls)
     fft          :      0.36s CPU      0.37s WALL (     140 calls)
     ffts         :      0.01s CPU      0.01s WALL (      20 calls)
     fftw         :     23.13s CPU     23.31s WALL (   59782 calls)
     interpolate  :      0.03s CPU      0.03s WALL (      10 calls)


     Hubbard U routines
     new_ns       :      0.28s CPU      0.28s WALL (      10 calls)
     vhpsi        :      1.02s CPU      1.02s WALL (    1008 calls)
     force_hub    :      1.51s CPU      1.51s WALL (       1 calls)

     PWSCF        :     57.80s CPU     58.97s WALL


   This run was terminated on:  21:38:57   9Dec2025            

=------------------------------------------------------------------------------=
   JOB DONE.
=------------------------------------------------------------------------------=
