
     Program PWSCF v.7.5 starts on  9Dec2025 at 21:42:34 

     This program is part of the open-source Quantum ESPRESSO suite
     for quantum simulation of materials; please cite
         "P. Giannozzi et al., J. Phys.:Condens. Matter 21 395502 (2009);
         "P. Giannozzi et al., J. Phys.:Condens. Matter 29 465901 (2017);
         "P. Giannozzi et al., J. Chem. Phys. 152 154105 (2020);
          URL http://www.quantum-espresso.org", 
     in publications or presentations arising from this work. More details at
     http://www.quantum-espresso.org/quote

     Serial version
     21930 MiB available memory on the printing compute node when the environment starts

     Reading input from GaAs.bands.in

     Current dimensions of program PWSCF are:
     Max number of different atomic species (ntypx) = 10
     Max number of k-points (npk) =  40000
     Max angular momentum in pseudopotentials (lmaxx) =  4
     file Ga.pbesol-dnl-rrkjus_psl.1.0.0.UPF: wavefunction(s)  3D renormalized

     Atomic positions and unit cell read from directory:
     ./outdir/GaAs.save/
     Atomic positions from file used, from input discarded



     G-vector sticks info
     --------------------
     sticks:   dense  smooth     PW     G-vecs:    dense   smooth      PW
     Sum        1573     769    241                41151    14361    2397

     Using Slab Decomposition



     bravais-lattice index     =            2
     lattice parameter (alat)  =      10.6890  a.u.
     unit-cell volume          =     305.3201 (a.u.)^3
     number of atoms/cell      =            2
     number of atomic types    =            2
     number of electrons       =        18.00
     number of Kohn-Sham states=           36
     kinetic-energy cutoff     =      50.0000  Ry
     charge density cutoff     =     400.0000  Ry
     Exchange-correlation= PBESOL
                           (   1   4  10   8   0   0   0)

     celldm(1)=  10.689034  celldm(2)=   0.000000  celldm(3)=   0.000000
     celldm(4)=   0.000000  celldm(5)=   0.000000  celldm(6)=   0.000000

     crystal axes: (cart. coord. in units of alat)
               a(1) = (  -0.500000   0.000000   0.500000 )  
               a(2) = (   0.000000   0.500000   0.500000 )  
               a(3) = (  -0.500000   0.500000   0.000000 )  

     reciprocal axes: (cart. coord. in units 2 pi/alat)
               b(1) = ( -1.000000 -1.000000  1.000000 )  
               b(2) = (  1.000000  1.000000  1.000000 )  
               b(3) = ( -1.000000  1.000000 -1.000000 )  


     PseudoPot. # 1 for Ga read from file:
     /home/kirill/Desktop/src/q-e-pseudos/Ga.pbesol-dnl-rrkjus_psl.1.0.0.UPF
     MD5 check sum: af75e18138b17f4c63d92c4186babeee
     Pseudo is Ultrasoft + core correction, Zval = 13.0
     Generated using &quot;atomic&quot; code by A. Dal Corso  v.6.3
     Using radial grid of 1205 points,  6 beta functions with: 
                l(1) =   0
                l(2) =   0
                l(3) =   1
                l(4) =   1
                l(5) =   2
                l(6) =   2
     Q(r) pseudized with 0 coefficients 


     PseudoPot. # 2 for As read from file:
     /home/kirill/Desktop/src/q-e-pseudos/As.pbesol-n-rrkjus_psl.0.2.UPF
     MD5 check sum: aea6fa71b557bb134146747eb310c298
     Pseudo is Ultrasoft + core correction, Zval =  5.0
     Generated using "atomic" code by A. Dal Corso  v.5.0.2 svn rev. 9415
     Using radial grid of 1209 points,  4 beta functions with: 
                l(1) =   0
                l(2) =   0
                l(3) =   1
                l(4) =   1
     Q(r) pseudized with 0 coefficients 


     atomic species   valence    mass     pseudopotential
     Ga               13.00    69.72300     Ga( 1.00)
     As                5.00    74.92159     As( 1.00)

     24 Sym. Ops. (no inversion) found



   Cartesian axes

     site n.     atom                  positions (alat units)
         1        Ga     tau(   1) = (   0.0000000   0.0000000   0.0000000  )
         2        As     tau(   2) = (  -0.2500000   0.2500000   0.2500000  )

     number of k points=    91
                       cart. coord. in units 2pi/alat
        k(    1) = (   0.5000000   0.5000000   0.5000000), wk =   0.0219780
        k(    2) = (   0.4750000   0.4750000   0.4750000), wk =   0.0219780
        k(    3) = (   0.4500000   0.4500000   0.4500000), wk =   0.0219780
        k(    4) = (   0.4250000   0.4250000   0.4250000), wk =   0.0219780
        k(    5) = (   0.4000000   0.4000000   0.4000000), wk =   0.0219780
        k(    6) = (   0.3750000   0.3750000   0.3750000), wk =   0.0219780
        k(    7) = (   0.3500000   0.3500000   0.3500000), wk =   0.0219780
        k(    8) = (   0.3250000   0.3250000   0.3250000), wk =   0.0219780
        k(    9) = (   0.3000000   0.3000000   0.3000000), wk =   0.0219780
        k(   10) = (   0.2750000   0.2750000   0.2750000), wk =   0.0219780
        k(   11) = (   0.2500000   0.2500000   0.2500000), wk =   0.0219780
        k(   12) = (   0.2250000   0.2250000   0.2250000), wk =   0.0219780
        k(   13) = (   0.2000000   0.2000000   0.2000000), wk =   0.0219780
        k(   14) = (   0.1750000   0.1750000   0.1750000), wk =   0.0219780
        k(   15) = (   0.1500000   0.1500000   0.1500000), wk =   0.0219780
        k(   16) = (   0.1250000   0.1250000   0.1250000), wk =   0.0219780
        k(   17) = (   0.1000000   0.1000000   0.1000000), wk =   0.0219780
        k(   18) = (   0.0750000   0.0750000   0.0750000), wk =   0.0219780
        k(   19) = (   0.0500000   0.0500000   0.0500000), wk =   0.0219780
        k(   20) = (   0.0250000   0.0250000   0.0250000), wk =   0.0219780
        k(   21) = (   0.0000000   0.0000000   0.0000000), wk =   0.0219780
        k(   22) = (   0.0333333   0.0000000   0.0000000), wk =   0.0219780
        k(   23) = (   0.0666667   0.0000000   0.0000000), wk =   0.0219780
        k(   24) = (   0.1000000   0.0000000   0.0000000), wk =   0.0219780
        k(   25) = (   0.1333333   0.0000000   0.0000000), wk =   0.0219780
        k(   26) = (   0.1666667   0.0000000   0.0000000), wk =   0.0219780
        k(   27) = (   0.2000000   0.0000000   0.0000000), wk =   0.0219780
        k(   28) = (   0.2333333   0.0000000   0.0000000), wk =   0.0219780
        k(   29) = (   0.2666667   0.0000000   0.0000000), wk =   0.0219780
        k(   30) = (   0.3000000   0.0000000   0.0000000), wk =   0.0219780
        k(   31) = (   0.3333333   0.0000000   0.0000000), wk =   0.0219780
        k(   32) = (   0.3666667   0.0000000   0.0000000), wk =   0.0219780
        k(   33) = (   0.4000000   0.0000000   0.0000000), wk =   0.0219780
        k(   34) = (   0.4333333   0.0000000   0.0000000), wk =   0.0219780
        k(   35) = (   0.4666667   0.0000000   0.0000000), wk =   0.0219780
        k(   36) = (   0.5000000   0.0000000   0.0000000), wk =   0.0219780
        k(   37) = (   0.5333333   0.0000000   0.0000000), wk =   0.0219780
        k(   38) = (   0.5666667   0.0000000   0.0000000), wk =   0.0219780
        k(   39) = (   0.6000000   0.0000000   0.0000000), wk =   0.0219780
        k(   40) = (   0.6333333   0.0000000   0.0000000), wk =   0.0219780
        k(   41) = (   0.6666667   0.0000000   0.0000000), wk =   0.0219780
        k(   42) = (   0.7000000   0.0000000   0.0000000), wk =   0.0219780
        k(   43) = (   0.7333333   0.0000000   0.0000000), wk =   0.0219780
        k(   44) = (   0.7666667   0.0000000   0.0000000), wk =   0.0219780
        k(   45) = (   0.8000000   0.0000000   0.0000000), wk =   0.0219780
        k(   46) = (   0.8333333   0.0000000   0.0000000), wk =   0.0219780
        k(   47) = (   0.8666667   0.0000000   0.0000000), wk =   0.0219780
        k(   48) = (   0.9000000   0.0000000   0.0000000), wk =   0.0219780
        k(   49) = (   0.9333333   0.0000000   0.0000000), wk =   0.0219780
        k(   50) = (   0.9666667   0.0000000   0.0000000), wk =   0.0219780
        k(   51) = (   1.0000000   0.0000000   0.0000000), wk =   0.0219780
        k(   52) = (   1.0000000   0.0250000   0.0250000), wk =   0.0219780
        k(   53) = (   1.0000000   0.0500000   0.0500000), wk =   0.0219780
        k(   54) = (   1.0000000   0.0750000   0.0750000), wk =   0.0219780
        k(   55) = (   1.0000000   0.1000000   0.1000000), wk =   0.0219780
        k(   56) = (   1.0000000   0.1250000   0.1250000), wk =   0.0219780
        k(   57) = (   1.0000000   0.1500000   0.1500000), wk =   0.0219780
        k(   58) = (   1.0000000   0.1750000   0.1750000), wk =   0.0219780
        k(   59) = (   1.0000000   0.2000000   0.2000000), wk =   0.0219780
        k(   60) = (   1.0000000   0.2250000   0.2250000), wk =   0.0219780
        k(   61) = (   1.0000000   0.2500000   0.2500000), wk =   0.0219780
        k(   62) = (   0.9666667   0.2416667   0.2416667), wk =   0.0219780
        k(   63) = (   0.9333333   0.2333333   0.2333333), wk =   0.0219780
        k(   64) = (   0.9000000   0.2250000   0.2250000), wk =   0.0219780
        k(   65) = (   0.8666667   0.2166667   0.2166667), wk =   0.0219780
        k(   66) = (   0.8333333   0.2083333   0.2083333), wk =   0.0219780
        k(   67) = (   0.8000000   0.2000000   0.2000000), wk =   0.0219780
        k(   68) = (   0.7666667   0.1916667   0.1916667), wk =   0.0219780
        k(   69) = (   0.7333333   0.1833333   0.1833333), wk =   0.0219780
        k(   70) = (   0.7000000   0.1750000   0.1750000), wk =   0.0219780
        k(   71) = (   0.6666667   0.1666667   0.1666667), wk =   0.0219780
        k(   72) = (   0.6333333   0.1583333   0.1583333), wk =   0.0219780
        k(   73) = (   0.6000000   0.1500000   0.1500000), wk =   0.0219780
        k(   74) = (   0.5666667   0.1416667   0.1416667), wk =   0.0219780
        k(   75) = (   0.5333333   0.1333333   0.1333333), wk =   0.0219780
        k(   76) = (   0.5000000   0.1250000   0.1250000), wk =   0.0219780
        k(   77) = (   0.4666667   0.1166667   0.1166667), wk =   0.0219780
        k(   78) = (   0.4333333   0.1083333   0.1083333), wk =   0.0219780
        k(   79) = (   0.4000000   0.1000000   0.1000000), wk =   0.0219780
        k(   80) = (   0.3666667   0.0916667   0.0916667), wk =   0.0219780
        k(   81) = (   0.3333333   0.0833333   0.0833333), wk =   0.0219780
        k(   82) = (   0.3000000   0.0750000   0.0750000), wk =   0.0219780
        k(   83) = (   0.2666667   0.0666667   0.0666667), wk =   0.0219780
        k(   84) = (   0.2333333   0.0583333   0.0583333), wk =   0.0219780
        k(   85) = (   0.2000000   0.0500000   0.0500000), wk =   0.0219780
        k(   86) = (   0.1666667   0.0416667   0.0416667), wk =   0.0219780
        k(   87) = (   0.1333333   0.0333333   0.0333333), wk =   0.0219780
        k(   88) = (   0.1000000   0.0250000   0.0250000), wk =   0.0219780
        k(   89) = (   0.0666667   0.0166667   0.0166667), wk =   0.0219780
        k(   90) = (   0.0333333   0.0083333   0.0083333), wk =   0.0219780
        k(   91) = (   0.0000000   0.0000000   0.0000000), wk =   0.0219780

     Dense  grid:    41151 G-vectors     FFT dimensions: (  50,  50,  50)

     Smooth grid:    14361 G-vectors     FFT dimensions: (  36,  36,  36)

     Estimated max dynamical RAM per process >     137.47 MB

     The potential is recalculated from file :
     ./outdir/GaAs.save/charge-density

     Starting wfcs are   13 randomized atomic wfcs +   23 random wfcs

     Band Structure Calculation
     Davidson diagonalization with overlap

     ethr =  5.56E-11,  avg # of iterations = 35.9

     total cpu time spent up to now is      145.7 secs

     End of band structure calculation

          k = 0.5000 0.5000 0.5000 (  1802 PWs)   bands (ev):

    -8.3513  -8.2574  -8.2574  -8.1936  -8.1936  -4.3494  -0.0990   5.4623
     5.4623   7.4932  11.1499  11.1499  14.2175  16.9079  18.5031  18.5031
    19.0007  19.7667  19.7667  26.0537  28.2093  28.9546  28.9546  29.6466
    29.6466  32.7203  33.1979  34.6221  34.6221  35.3153  35.3153  36.2291
    39.4408  39.4408  39.9367  40.2107

          k = 0.4750 0.4750 0.4750 (  1826 PWs)   bands (ev):

    -8.3510  -8.2577  -8.2577  -8.1939  -8.1939  -4.3684  -0.0654   5.4672
     5.4672   7.4984  11.1530  11.1530  14.2204  16.7889  18.3241  18.3241
    19.1194  19.9700  19.9700  25.8068  28.4644  28.4644  28.4727  30.1513
    30.1513  32.1179  33.8325  34.6047  34.6047  35.3030  35.3030  36.2107
    39.4747  39.4747  39.9034  40.2414

          k = 0.4500 0.4500 0.4500 (  1823 PWs)   bands (ev):

    -8.3496  -8.2580  -8.2580  -8.1942  -8.1942  -4.4234   0.0336   5.4821
     5.4821   7.5138  11.1617  11.1617  14.2270  16.4971  17.9560  17.9560
    19.4068  20.4114  20.4114  25.2815  27.7544  27.7544  29.0271  30.9042
    30.9042  31.3992  34.5545  34.5545  34.6721  35.2685  35.2685  36.1571
    39.5750  39.5750  39.8160  40.3328

          k = 0.4250 0.4250 0.4250 (  1838 PWs)   bands (ev):

    -8.3478  -8.2584  -8.2584  -8.1947  -8.1947  -4.5092   0.1926   5.5068
     5.5068   7.5394  11.1750  11.1750  14.2292  16.1342  17.5495  17.5495
    19.7490  20.9412  20.9412  24.7121  27.0387  27.0387  29.4735  30.9319
    31.6874  31.6874  34.4773  34.4773  35.2173  35.2173  35.5251  36.0734
    39.7037  39.7369  39.7369  40.4815

          k = 0.4000 0.4000 0.4000 (  1832 PWs)   bands (ev):

    -8.3451  -8.2589  -8.2589  -8.1951  -8.1951  -4.6189   0.4046   5.5411
     5.5411   7.5750  11.1908  11.1908  14.2087  15.7715  17.1510  17.1510
    20.0506  21.5140  21.5140  24.2174  26.3358  26.3358  29.2563  31.2060
    32.4727  32.4727  34.3831  34.3831  35.1610  35.1610  35.9660  36.3597
    39.6057  39.9540  39.9540  40.6829

          k = 0.3750 0.3750 0.3750 (  1838 PWs)   bands (ev):

    -8.3418  -8.2596  -8.2596  -8.1956  -8.1956  -4.7454   0.6619   5.5848
     5.5848   7.6201  11.2062  11.2062  14.1286  15.4699  16.7777  16.7777
    20.2151  22.1134  22.1134  23.8971  25.6523  25.6523  28.6356  31.9371
    33.2197  33.2197  34.2927  34.2927  35.1264  35.1264  35.8420  37.1203
    39.5852  40.2192  40.2192  40.9315

          k = 0.3500 0.3500 0.3500 (  1847 PWs)   bands (ev):

    -8.3379  -8.2606  -8.2606  -8.1962  -8.1962  -4.8820   0.9578   5.6376
     5.6376   7.6743  11.2174  11.2174  13.9433  15.2860  16.4396  16.4396
    20.1578  22.7260  22.7260  23.8365  24.9971  24.9971  27.9433  32.7811
    33.7629  33.7629  34.2914  34.2914  35.2025  35.2025  35.7078  37.6884
    39.7649  40.5256  40.5256  41.2222

          k = 0.3250 0.3250 0.3250 (  1853 PWs)   bands (ev):

    -8.3334  -8.2617  -8.2617  -8.1968  -8.1968  -5.0232   1.2862   5.6989
     5.6989   7.7366  11.2199  11.2199  13.6468  15.2305  16.1443  16.1443
    19.8747  23.3070  23.3070  24.0406  24.4129  24.4129  27.2484  33.6612
    33.8405  33.8405  34.4303  34.4303  35.5690  35.6086  35.6086  37.9463
    40.2638  40.8669  40.8669  41.5500

          k = 0.3000 0.3000 0.3000 (  1841 PWs)   bands (ev):

    -8.3283  -8.2628  -8.2628  -8.1972  -8.1972  -5.1646   1.6421   5.7681
     5.7681   7.8060  11.2087  11.2087  13.2801  15.2632  15.8987  15.8987
    19.4426  23.4451  23.4451  24.3098  24.3098  24.4321  26.5721  33.7444
    33.7444  34.4417  34.4417  34.5478  35.4300  36.3268  36.3268  37.9687
    41.0083  41.2366  41.2366  41.9098

          k = 0.2750 0.2750 0.2750 (  1835 PWs)   bands (ev):

    -8.3228  -8.2641  -8.2641  -8.1975  -8.1975  -5.3027   2.0213   5.8445
     5.8445   7.8804  11.1793  11.1793  12.8821  15.3424  15.7091  15.7091
    18.9433  22.9473  22.9473  24.8802  24.8802  24.9100  25.9464  33.6226
    33.6226  34.3794  34.3794  35.2942  35.4065  37.1587  37.1587  37.9071
    41.6252  41.6252  41.8547  42.2944

          k = 0.2500 0.2500 0.2500 (  1847 PWs)   bands (ev):

    -8.3171  -8.2657  -8.2657  -8.1981  -8.1981  -5.4349   2.4202   5.9271
     5.9271   7.9572  11.1282  11.1282  12.4753  15.4382  15.5800  15.5800
    18.4354  22.3739  22.3739  25.0626  25.5630  25.5630  25.7389  33.4986
    33.4986  34.2956  34.2956  35.1645  36.1486  37.9052  38.0281  38.0281
    42.0064  42.0064  42.6819  42.6819

          k = 0.2250 0.2250 0.2250 (  1832 PWs)   bands (ev):

    -8.3110  -8.2672  -8.2672  -8.1982  -8.1982  -5.5590   2.8358   6.0146
     6.0146   8.0320  11.0544  11.0544  12.0726  15.5137  15.5137  15.5213
    17.9663  21.8044  21.8044  24.5402  26.2757  26.2784  26.2784  33.3796
    33.3796  34.2079  34.2079  35.0428  36.5498  38.2030  38.8999  38.8999
    42.1842  42.1842  42.9033  42.9033

          k = 0.2000 0.2000 0.2000 (  1841 PWs)   bands (ev):

    -8.3053  -8.2689  -8.2689  -8.1985  -8.1985  -5.6734   3.2650   6.1053
     6.1053   8.0984  10.9597  10.9597  11.6838  15.5095  15.5095  15.5505
    17.5884  21.2509  21.2509  23.9597  26.9265  27.0139  27.0139  33.2694
    33.2694  34.1230  34.1230  34.9309  36.5280  38.8791  39.7046  39.7046
    41.6683  41.6683  43.1542  43.1542

          k = 0.1750 0.1750 0.1750 (  1835 PWs)   bands (ev):

    -8.2994  -8.2704  -8.2704  -8.1986  -8.1986  -5.7768   3.7050   6.1973
     6.1973   8.1464  10.8489  10.8489  11.3188  15.4745  15.5640  15.5640
    17.3613  20.7173  20.7173  23.3957  27.6098  27.7647  27.7647  33.1704
    33.1704  34.0451  34.0451  34.8299  36.2923  39.7098  40.0149  40.0149
    41.3731  41.3731  43.2997  43.5958

          k = 0.1500 0.1500 0.1500 (  1829 PWs)   bands (ev):

    -8.2940  -8.2719  -8.2719  -8.1986  -8.1986  -5.8683   4.1530   6.2881
     6.2881   8.1617  10.7288  10.7288  10.9904  15.2742  15.6715  15.6715
    17.3101  20.2065  20.2065  22.8595  28.3105  28.5271  28.5271  33.0848
    33.0848  33.9770  33.9770  34.7408  35.9528  39.3830  39.3830  40.5457
    41.9842  41.9842  43.1157  44.0796

          k = 0.1250 0.1250 0.1250 (  1841 PWs)   bands (ev):

    -8.2894  -8.2733  -8.2733  -8.1987  -8.1987  -5.9469   4.6056   6.3747
     6.3747   8.1252  10.6073  10.6073  10.7143  14.9942  15.8246  15.8246
    17.3945  19.7215  19.7215  22.3583  29.0203  29.2956  29.2956  33.0150
    33.0150  33.9211  33.9211  34.6644  35.5414  38.5138  38.5138  41.2470
    42.8196  42.8196  43.0669  44.5741

          k = 0.1000 0.1000 0.1000 (  1835 PWs)   bands (ev):

    -8.2852  -8.2745  -8.2745  -8.1985  -8.1985  -6.0121   5.0593   6.4535
     6.4535   8.0179  10.4930  10.4930  10.5051  14.6971  16.0144  16.0144
    17.5545  19.2666  19.2666  21.9004  29.7326  30.0608  30.0608  32.9648
    32.9648  33.8814  33.8814  34.6012  35.0704  37.6165  37.6165  41.5918
    43.4008  43.6648  43.6648  45.0571

          k = 0.0750 0.0750 0.0750 (  1835 PWs)   bands (ev):

    -8.2817  -8.2756  -8.2756  -8.1984  -8.1984  -6.0633   5.5091   6.5207
     6.5207   7.8294  10.3682  10.3939  10.3939  14.4276  16.2292  16.2292
    17.7439  18.8499  18.8499  21.4987  30.4390  30.8019  30.8019  32.9421
    32.9421  33.8657  33.8657  34.5489  34.5517  36.7303  36.7303  41.6082
    44.0970  44.4674  44.4674  45.4997

          k = 0.0500 0.0500 0.0500 (  1828 PWs)   bands (ev):

    -8.2790  -8.2763  -8.2763  -8.1983  -8.1983  -6.1001   5.9479   6.5724
     6.5724   7.5661  10.2933  10.3171  10.3171  14.2151  16.4493  16.4493
    17.9250  18.4876  18.4876  21.1737  31.1261  31.4676  31.4676  32.9645
    32.9645  33.8962  33.8962  33.9922  34.5161  35.8771  35.8771  41.5303
    44.9065  45.1938  45.1938  45.8657

          k = 0.0250 0.0250 0.0250 (  1834 PWs)   bands (ev):

    -8.2774  -8.2768  -8.2768  -8.1984  -8.1984  -6.1223   6.3586   6.6050
     6.6050   7.2542  10.2604  10.2684  10.2684  14.0792  16.6354  16.6354
    18.0594  18.2171  18.2171  20.9555  31.7544  31.9416  31.9416  33.0504
    33.0504  33.4410  34.0413  34.0413  34.4947  35.0899  35.0899  41.4633
    45.6564  45.7879  45.7879  46.1253

          k = 0.0000 0.0000 0.0000 (  1837 PWs)   bands (ev):

    -8.2770  -8.2770  -8.2770  -8.1984  -8.1984  -6.1297   6.6162   6.6162
     6.6162   7.0283  10.2518  10.2518  10.2518  14.0325  16.7147  16.7147
    18.1099  18.1099  18.1099  20.8774  32.1039  32.1039  32.1039  33.1169
    33.1169  33.1169  34.3874  34.3874  34.4875  34.4875  34.4875  41.4386
    46.0402  46.0402  46.0402  46.2658

          k = 0.0333 0.0000 0.0000 (  1836 PWs)   bands (ev):

    -8.2774  -8.2768  -8.2768  -8.1984  -8.1983  -6.1253   6.4569   6.6006
     6.6006   7.1871  10.2342  10.2729  10.2729  14.0603  16.6151  16.7193
    18.1195  18.1195  18.1879  20.9246  31.9297  31.9297  32.0313  33.1132
    33.1833  33.1833  33.8592  34.4522  34.6078  34.6078  35.0241  41.4534
    45.8374  45.8374  45.8793  46.1226

          k = 0.0667 0.0000 0.0000 (  1828 PWs)   bands (ev):

    -8.2785  -8.2763  -8.2763  -8.1985  -8.1982  -6.1122   6.1848   6.5550
     6.5550   7.4572  10.1831  10.3350  10.3350  14.1418  16.3700  16.7333
    18.1482  18.1482  18.3688  21.0660  31.5362  31.5362  31.8307  33.1101
    33.2877  33.2877  33.2929  34.6212  34.9344  34.9344  35.6155  41.4953
    45.3551  45.3849  45.3849  45.9841

          k = 0.1000 0.0000 0.0000 (  1824 PWs)   bands (ev):

    -8.2803  -8.2756  -8.2756  -8.1987  -8.1980  -6.0902   5.8952   6.4824
     6.4824   7.7424  10.1031  10.4350  10.4350  14.2722  16.0573  16.7567
    18.1962  18.1962  18.5781  21.2994  31.0579  31.0579  31.5391  32.7347
    33.1174  33.3687  33.3687  34.8481  35.3936  35.3936  36.2152  41.5562
    44.7118  44.8221  44.8221  45.8205

          k = 0.1333 0.0000 0.0000 (  1832 PWs)   bands (ev):

    -8.2829  -8.2748  -8.2748  -8.1993  -8.1977  -6.0596   5.6015   6.3874
     6.3874   8.0277  10.0007  10.5684  10.5684  14.4441  15.7217  16.7894
    18.2633  18.2633  18.7799  21.6182  30.5467  30.5467  31.1899  32.1855
    33.1369  33.4339  33.4339  35.0976  35.9257  35.9257  36.8221  41.6172
    44.0475  44.1959  44.1959  45.6171

          k = 0.1667 0.0000 0.0000 (  1840 PWs)   bands (ev):

    -8.2863  -8.2738  -8.2738  -8.1999  -8.1974  -6.0205   5.3072   6.2745
     6.2745   8.3067   9.8829  10.7304  10.7304  14.6456  15.3908  16.8313
    18.3498  18.3498  18.9651  22.0115  30.0226  30.0226  30.8055  31.6454
    33.1676  33.4948  33.4948  35.3489  36.4977  36.4977  37.4353  41.6357
    43.4157  43.5293  43.5293  45.3553

          k = 0.2000 0.0000 0.0000 (  1840 PWs)   bands (ev):

    -8.2901  -8.2725  -8.2725  -8.2005  -8.1970  -5.9729   5.0137   6.1485
     6.1485   8.5731   9.7577  10.9163  10.9163  14.8201  15.1286  16.8826
    18.4555  18.4555  19.1363  22.4661  29.4948  29.4948  30.3997  31.1148
    33.2083  33.5580  33.5580  35.5901  37.0922  37.0922  38.0538  41.5199
    42.8388  42.8388  42.8890  44.9062

          k = 0.2333 0.0000 0.0000 (  1832 PWs)   bands (ev):

    -8.2944  -8.2708  -8.2708  -8.2011  -8.1965  -5.9170   4.7215   6.0133
     6.0133   8.8164   9.6361  11.1220  11.1220  14.6743  15.2329  16.9432
    18.5807  18.5807  19.2996  22.9700  28.9680  28.9680  29.9812  30.5937
    33.2582  33.6265  33.6265  35.8135  37.6969  37.6969  38.6760  41.1661
    42.1390  42.1390  42.5169  44.3631

          k = 0.2667 0.0000 0.0000 (  1836 PWs)   bands (ev):

    -8.2992  -8.2691  -8.2691  -8.2018  -8.1962  -5.8530   4.4313   5.8723
     5.8723   9.0110   9.5419  11.3440  11.3440  14.4103  15.5063  17.0131
    18.7254  18.7254  19.4610  23.5131  28.4449  28.4449  29.5558  30.0822
    33.3167  33.7018  33.7018  36.0130  38.2960  38.2960  39.2997  40.6219
    41.4485  41.4485  42.1656  43.9382

          k = 0.3000 0.0000 0.0000 (  1836 PWs)   bands (ev):

    -8.3042  -8.2671  -8.2671  -8.2027  -8.1956  -5.7811   4.1431   5.7283
     5.7283   9.0920   9.5360  11.5793  11.5793  14.1697  15.8124  17.0922
    18.8896  18.8896  19.6255  24.0879  27.9271  27.9271  29.1275  29.5807
    33.3835  33.7847  33.7847  36.1809  38.8457  38.8457  39.9218  40.0053
    40.8137  40.8137  41.6827  43.6616

          k = 0.3333 0.0000 0.0000 (  1832 PWs)   bands (ev):

    -8.3095  -8.2649  -8.2649  -8.2038  -8.1949  -5.7015   3.8573   5.5835
     5.5835   9.0387   9.6335  11.8257  11.8257  13.9731  16.1373  17.1806
    19.0733  19.0733  19.7970  24.6889  27.4158  27.4158  28.6997  29.0890
    33.4582  33.8755  33.8755  36.3042  39.1444  39.1444  39.3855  40.4379
    40.4379  40.5367  41.0785  43.4482

          k = 0.3667 0.0000 0.0000 (  1832 PWs)   bands (ev):

    -8.3150  -8.2627  -8.2627  -8.2049  -8.1943  -5.6145   3.5742   5.4397
     5.4397   8.9311   9.7469  12.0811  12.0811  13.8326  16.4763  17.2781
    19.2766  19.2766  19.9783  25.3119  26.9117  26.9117  28.2751  28.6074
    33.5404  33.9743  33.9743  36.3564  38.8107  38.8335  38.8335  40.4134
    40.6801  40.6801  41.1355  43.2306

          k = 0.4000 0.0000 0.0000 (  1824 PWs)   bands (ev):

    -8.3205  -8.2602  -8.2602  -8.2061  -8.1934  -5.5203   3.2938   5.2984
     5.2984   8.8109   9.8281  12.3440  12.3440  13.7574  16.8260  17.3849
    19.4995  19.4995  20.1716  25.9536  26.4155  26.4155  27.8561  28.1360
    33.6298  34.0810  34.0810  36.2874  38.2183  38.2183  38.3375  39.7280
    41.2341  41.2341  41.7028  42.9947

          k = 0.4333 0.0000 0.0000 (  1820 PWs)   bands (ev):

    -8.3261  -8.2577  -8.2577  -8.2073  -8.1927  -5.4192   3.0165   5.1608
     5.1608   8.6903   9.8614  12.6131  12.6131  13.7526  17.1836  17.5007
    19.7419  19.7419  20.3787  25.9275  25.9275  26.6111  27.4454  27.6749
    33.7257  34.1951  34.1951  36.0392  37.5372  37.5372  38.0161  39.0546
    41.8549  41.8549  42.2123  42.7457

          k = 0.4667 0.0000 0.0000 (  1820 PWs)   bands (ev):

    -8.3316  -8.2552  -8.2552  -8.2086  -8.1919  -5.3117   2.7426   5.0278
     5.0278   8.5740   9.8445  12.8873  12.8873  13.8171  17.5460  17.6254
    20.0037  20.0037  20.6010  25.4483  25.4483  27.0446  27.2242  27.2830
    33.8266  34.3161  34.3161  35.6132  36.8412  36.8412  37.7823  38.4700
    42.4579  42.4579  42.4906  42.6261

          k = 0.5000 0.0000 0.0000 (  1828 PWs)   bands (ev):

    -8.3371  -8.2527  -8.2527  -8.2101  -8.1912  -5.1982   2.4725   4.9001
     4.9001   8.4640   9.7826  13.1657  13.1657  13.9441  17.7591  17.9100
    20.2847  20.2847  20.8398  24.9782  24.9782  26.6587  26.7841  27.9647
    33.9287  34.4418  34.4418  35.0775  36.1457  36.1457  37.3616  38.1926
    42.2356  42.7542  42.7542  42.9105

          k = 0.5333 0.0000 0.0000 (  1824 PWs)   bands (ev):

    -8.3423  -8.2501  -8.2501  -8.2115  -8.1904  -5.0791   2.2066   4.7785
     4.7785   8.3617   9.6853  13.4475  13.4475  14.1230  17.9015  18.2716
    20.5848  20.5848  21.0962  24.5179  24.5179  26.2897  26.3549  28.6547
    34.0093  34.5113  34.5644  34.5644  35.4638  35.4638  36.7489  38.1766
    41.9856  42.5630  42.5630  43.0655

          k = 0.5667 0.0000 0.0000 (  1824 PWs)   bands (ev):

    -8.3474  -8.2475  -8.2475  -8.2128  -8.1897  -4.9551   1.9456   4.6635
     4.6635   8.2679   9.5630  13.7319  13.7319  14.3425  18.0524  18.6259
    20.9035  20.9035  21.3712  24.0679  24.0679  25.9366  25.9427  29.3483
    33.7706  34.2395  34.5720  34.5720  34.9095  34.9095  36.1047  38.2391
    41.7453  42.2826  42.2826  43.1252

          k = 0.6000 0.0000 0.0000 (  1832 PWs)   bands (ev):

    -8.3524  -8.2452  -8.2452  -8.2142  -8.1890  -4.8268   1.6901   4.5556
     4.5556   8.1833   9.4251  14.0180  14.0180  14.5926  18.2116  18.9668
    21.2402  21.2402  21.6654  23.6290  23.6290  25.5297  25.6237  30.0383
    33.1767  34.0218  34.0218  34.2968  34.9267  34.9267  35.4908  38.3254
    41.5194  41.9903  41.9903  43.1277

          k = 0.6333 0.0000 0.0000 (  1820 PWs)   bands (ev):

    -8.3569  -8.2427  -8.2427  -8.2151  -8.1883  -4.6952   1.4411   4.4551
     4.4551   8.1083   9.2790  14.3053  14.3053  14.8646  18.3789  19.2864
    21.5936  21.5936  21.9793  23.2030  23.2030  25.1346  25.3409  30.7104
    32.5535  33.3617  33.3617  34.2826  35.0135  35.0677  35.0677  38.4160
    41.3136  41.6981  41.6981  43.0991

          k = 0.6667 0.0000 0.0000 (  1832 PWs)   bands (ev):

    -8.3613  -8.2405  -8.2405  -8.2166  -8.1877  -4.5612   1.1997   4.3624
     4.3624   8.0432   9.1306  14.5927  14.5927  15.1515  18.5536  19.5747
    21.9583  21.9583  22.3127  22.7958  22.7958  24.7516  25.1050  31.3280
    31.9318  32.7006  32.7006  33.9882  34.8929  35.2234  35.2234  38.4998
    41.1339  41.4103  41.4103  43.0552

          k = 0.7000 0.0000 0.0000 (  1820 PWs)   bands (ev):

    -8.3652  -8.2381  -8.2381  -8.2178  -8.1870  -4.4263   0.9671   4.2778
     4.2778   7.9884   8.9841  14.8790  14.8790  15.4477  18.7351  19.8196
    22.2397  22.2397  22.5030  22.5030  22.6647  24.3815  24.9292  31.3080
    31.7951  32.0467  32.0467  33.6408  35.0044  35.3850  35.3850  38.5692
    40.9878  41.1295  41.1295  43.0047

          k = 0.7333 0.0000 0.0000 (  1808 PWs)   bands (ev):

    -8.3688  -8.2358  -8.2358  -8.2188  -8.1864  -4.2920   0.7452   4.2015
     4.2015   7.9441   8.8427  15.1627  15.1627  15.7483  18.9226  20.0084
    21.9597  21.9597  22.8037  22.8037  23.0332  24.0253  24.8293  30.7025
    31.4022  31.4022  31.8526  33.6265  35.2005  35.5492  35.5492  38.6185
    40.8580  40.8580  40.8816  42.9530

          k = 0.7667 0.0000 0.0000 (  1800 PWs)   bands (ev):

    -8.3720  -8.2338  -8.2338  -8.2198  -8.1858  -4.1605   0.5361   4.1338
     4.1338   7.9102   8.7088  15.4415  15.4415  16.0485  19.1146  20.1304
    21.5974  21.5974  23.2205  23.2205  23.4146  23.6844  24.8201  30.1067
    30.7680  30.7680  31.4975  33.9623  35.4719  35.7132  35.7132  38.6471
    40.5987  40.5987  40.8195  42.9033

          k = 0.8000 0.0000 0.0000 (  1808 PWs)   bands (ev):

    -8.3750  -8.2323  -8.2323  -8.2208  -8.1854  -4.0342   0.3424   4.0747
     4.0747   7.8869   8.5840  15.7124  15.7124  16.3435  19.3090  20.1813
    21.2485  21.2485  23.3608  23.6606  23.6606  23.8039  24.9118  29.5241
    30.1449  30.1449  30.9818  34.3611  35.8434  35.8738  35.8738  38.6623
    40.3547  40.3547  40.8012  42.8577

          k = 0.8333 0.0000 0.0000 (  1816 PWs)   bands (ev):

    -8.3774  -8.2309  -8.2309  -8.2218  -8.1850  -3.9163   0.1673   4.0245
     4.0245   7.8740   8.4699  15.9707  15.9707  16.6274  19.5027  20.1661
    20.9228  20.9228  23.0578  24.1184  24.1184  24.1959  25.1053  28.9566
    29.5336  29.5336  30.4237  34.6850  36.0272  36.0272  36.3168  38.6858
    40.1304  40.1304  40.8205  42.8175

          k = 0.8667 0.0000 0.0000 (  1796 PWs)   bands (ev):

    -8.3791  -8.2296  -8.2296  -8.2224  -8.1843  -3.8107   0.0147   3.9832
     3.9832   7.8711   8.3678  16.2096  16.2096  16.8926  19.6905  20.0997
    20.6281  20.6281  22.7807  24.5887  24.5923  24.5923  25.3884  28.4061
    28.9345  28.9345  29.8628  34.9193  36.1681  36.1681  36.8298  38.7633
    39.9311  39.9311  40.8661  42.7837

          k = 0.9000 0.0000 0.0000 (  1796 PWs)   bands (ev):

    -8.3807  -8.2286  -8.2286  -8.2229  -8.1841  -3.7215  -0.1110   3.9511
     3.9511   7.8772   8.2795  16.4196  16.4196  17.1284  19.8643  20.0036
    20.3746  20.3746  22.5374  24.9851  25.0810  25.0810  25.7351  27.8755
    28.3487  28.3487  29.3208  35.0851  36.2901  36.2901  37.2692  38.9765
    39.7635  39.7635  40.9225  42.7569

          k = 0.9333 0.0000 0.0000 (  1788 PWs)   bands (ev):

    -8.3818  -8.2278  -8.2278  -8.2233  -8.1838  -3.6533  -0.2054   3.9280
     3.9280   7.8899   8.2077  16.5874  16.5874  17.3196  19.9038  20.0109
    20.1755  20.1755  22.3410  25.3876  25.5827  25.5827  26.1057  27.3707
    27.7778  27.7778  28.8234  35.1984  36.3857  36.3857  37.5372  39.4003
    39.6352  39.6352  40.9681  42.4383

          k = 0.9667 0.0000 0.0000 (  1776 PWs)   bands (ev):

    -8.3823  -8.2273  -8.2273  -8.2233  -8.1836  -3.6104  -0.2640   3.9142
     3.9142   7.9041   8.1580  16.6976  16.6976  17.4472  19.8277  20.0466
    20.0466  20.1123  22.2098  25.7816  26.0903  26.0903  26.4329  26.9119
    27.2286  27.2286  28.4263  35.2655  36.4471  36.4471  37.6518  39.5541
    39.5541  39.9934  40.9491  41.7621

          k = 1.0000 0.0000 0.0000 (  1772 PWs)   bands (ev):

    -8.3826  -8.2271  -8.2271  -8.2233  -8.1836  -3.5957  -0.2839   3.9096
     3.9096   7.9108   8.1394  16.7362  16.7362  17.4925  19.7991  20.0017
    20.0017  20.1491  22.1631  26.0218  26.4789  26.4789  26.5998  26.6288
    26.8261  26.8261  28.2577  35.2878  36.4684  36.4684  37.6808  39.5262
    39.5262  40.5587  40.6823  41.4339

          k = 1.0000 0.0250 0.0250 (  1784 PWs)   bands (ev):

    -8.3825  -8.2276  -8.2273  -8.2232  -8.1838  -3.5950  -0.2819   3.8811
     3.9140   7.9344   8.1675  16.6692  16.6992  17.4902  19.6421  19.8177
    20.2326  20.3213  22.2181  25.8638  26.2080  26.4929  26.5856  26.7512
    26.8410  27.1422  28.3067  35.0436  36.4654  36.4846  37.8521  39.2378
    39.5312  40.6488  40.7994  41.5246

          k = 1.0000 0.0500 0.0500 (  1798 PWs)   bands (ev):

    -8.3823  -8.2285  -8.2275  -8.2226  -8.1842  -3.5930  -0.2759   3.8000
     3.9271   7.9838   8.2688  16.4986  16.5928  17.4468  19.5190  19.5555
    20.5552  20.5831  22.3713  25.5536  25.8155  26.5350  26.6137  26.8858
    26.9707  27.5824  28.4543  34.4968  36.4359  36.4561  38.2209  38.7653
    39.5457  40.6817  41.0334  41.7902

          k = 1.0000 0.0750 0.0750 (  1802 PWs)   bands (ev):

    -8.3816  -8.2297  -8.2279  -8.2217  -8.1846  -3.5901  -0.2661   3.6778
     3.9489   8.0300   8.4609  16.2715  16.4289  17.3153  19.2690  19.5166
    20.8104  20.9629  22.5957  25.2067  25.4290  26.6059  26.6736  26.9614
    27.1656  28.0427  28.6948  33.8396  36.2479  36.4398  38.1186  38.8725
    39.5671  40.7188  41.1390  41.1993

          k = 1.0000 0.1000 0.1000 (  1806 PWs)   bands (ev):

    -8.3806  -8.2310  -8.2285  -8.2207  -8.1853  -3.5869  -0.2525   3.5290
     3.9793   8.0725   8.7306  16.0167  16.2216  17.0960  18.9669  19.6198
    21.0890  21.3517  22.8643  24.8547  25.0601  26.7063  26.7567  27.0694
    27.3299  28.5143  29.0100  33.1462  35.8866  36.4150  37.7869  39.3101
    39.5822  40.3922  40.7644  41.3587

          k = 1.0000 0.1250 0.1250 (  1808 PWs)   bands (ev):

    -8.3795  -8.2325  -8.2292  -8.2195  -8.1859  -3.5844  -0.2355   3.3673
     4.0182   8.1174   9.0583  15.7497  15.9839  16.8169  18.6562  19.7910
    21.3883  21.7311  23.1566  24.5121  24.7170  26.8373  26.8583  27.2116
    27.4793  28.9916  29.3745  32.4508  35.3696  36.3792  37.5792  39.4137
    39.6759  39.8280  40.8092  41.5326

          k = 1.0000 0.1500 0.1500 (  1804 PWs)   bands (ev):

    -8.3780  -8.2341  -8.2299  -8.2182  -8.1866  -3.5839  -0.2152   3.2042
     4.0653   8.1678   9.4294  15.4796  15.7263  16.5044  18.3425  19.9974
    21.7037  22.0735  23.4581  24.1884  24.4184  26.9729  27.0000  27.3904
    27.6307  29.4646  29.7608  31.7835  34.7643  36.3270  37.4644  38.7373
    39.7880  39.9049  40.8046  41.3185

          k = 1.0000 0.1750 0.1750 (  1816 PWs)   bands (ev):

    -8.3766  -8.2359  -8.2308  -8.2169  -8.1877  -3.5868  -0.1916   3.0493
     4.1205   8.2246   9.8335  15.2126  15.4567  16.1757  18.0299  20.2159
    22.0296  22.3295  23.7588  23.8855  24.2111  27.0940  27.1953  27.6081
    27.7961  29.8906  30.1278  31.2184  34.1343  36.2464  37.3989  37.9963
    39.8344  39.8463  40.6434  41.1286

          k = 1.0000 0.2000 0.2000 (  1816 PWs)   bands (ev):

    -8.3749  -8.2377  -8.2318  -8.2154  -8.1886  -3.5946  -0.1644   2.9098
     4.1835   8.2881  10.2619  14.9539  15.1807  15.8408  17.7216  20.4295
    22.3614  22.4294  23.6000  24.0524  24.1656  27.2152  27.4235  27.8668
    27.9801  29.9691  30.4651  31.0513  33.5356  36.1028  37.3049  37.3569
    39.3041  39.9266  40.6514  41.1713

          k = 1.0000 0.2250 0.2250 (  1828 PWs)   bands (ev):

    -8.3731  -8.2397  -8.2331  -8.2138  -8.1898  -3.6093  -0.1333   2.7911
     4.2540   8.3582  10.7064  14.7093  14.9024  15.5056  17.4199  20.6229
    22.3510  22.6949  23.3368  24.2949  24.3347  27.3295  27.6852  28.1676
    28.1722  29.5789  30.7655  31.3736  33.0506  35.7981  36.7699  37.3230
    38.6041  40.0213  40.7692  41.2584

          k = 1.0000 0.2500 0.2500 (  1822 PWs)   bands (ev):

    -8.3711  -8.2414  -8.2343  -8.2120  -8.1909  -3.6325  -0.0971   2.6972
     4.3316   8.4344  11.1573  14.4864  14.6251  15.1741  17.1266  20.7786
    22.1544  23.0270  23.1095  24.5163  24.6044  27.4258  27.9803  28.3164
    28.5101  29.2004  30.8377  31.8449  32.8270  35.2525  36.4742  37.2791
    37.8820  40.1286  40.9102  41.3616

          k = 0.9667 0.2417 0.2417 (  1819 PWs)   bands (ev):

    -8.3716  -8.2409  -8.2340  -8.2125  -8.1904  -3.6330  -0.1017   2.7370
     4.3090   8.4133  11.0106  14.4416  14.6841  15.4018  17.2648  20.6846
    22.0422  22.8181  23.3709  24.4834  24.6121  27.2257  27.6320  28.4572
    28.6620  29.2890  30.7304  31.7464  32.9793  35.4582  36.5424  37.2612
    38.1352  40.0981  40.3283  41.7124

          k = 0.9333 0.2333 0.2333 (  1821 PWs)   bands (ev):

    -8.3718  -8.2406  -8.2340  -8.2130  -8.1901  -3.6541  -0.0862   2.8007
     4.2954   8.4031  10.8719  14.2819  14.6819  15.7481  17.4808  20.5042
    21.7443  22.4748  23.7779  24.5710  24.7482  26.8649  27.1426  28.7304
    29.0127  29.3670  30.3945  31.9011  33.2735  35.6407  36.6188  37.1603
    38.4097  39.6012  40.0887  41.8241

          k = 0.9000 0.2250 0.2250 (  1824 PWs)   bands (ev):

    -8.3716  -8.2405  -8.2343  -8.2134  -8.1896  -3.6964  -0.0473   2.8851
     4.2910   8.4035  10.7432  14.0930  14.6312  16.1201  17.7598  20.2609
    21.4106  22.0763  24.0564  24.8616  24.9291  26.5156  26.6602  28.7928
    29.4205  29.5480  30.1041  32.2007  33.6240  35.7765  36.7251  36.9501
    38.6241  39.0269  40.1083  41.8052

          k = 0.8667 0.2167 0.2167 (  1818 PWs)   bands (ev):

    -8.3709  -8.2406  -8.2348  -8.2135  -8.1893  -3.7594   0.0169   2.9874
     4.2960   8.4143  10.6257  13.8972  14.5461  16.4845  18.0841  19.9785
    21.0827  21.6642  24.1386  25.0903  25.2875  26.2299  26.2987  28.4745
    29.8667  29.8832  30.0383  32.5663  34.0028  35.8441  36.5861  36.8831
    38.3258  39.1256  40.1611  41.7928

          k = 0.8333 0.2083 0.2083 (  1818 PWs)   bands (ev):

    -8.3699  -8.2409  -8.2356  -8.2135  -8.1890  -3.8412   0.1069   3.1052
     4.3104   8.4350  10.5205  13.7018  14.4379  16.8158  18.4355  19.6815
    20.7802  21.2620  24.0755  25.1127  25.5507  25.9605  26.4482  27.9817
    29.9516  30.3449  30.4354  32.9684  34.3879  35.8418  36.0694  37.0966
    37.9840  39.4495  40.2485  41.8051

          k = 0.8000 0.2000 0.2000 (  1810 PWs)   bands (ev):

    -8.3685  -8.2415  -8.2366  -8.2133  -8.1887  -3.9393   0.2218   3.2362
     4.3345   8.4646  10.4283  13.5098  14.3140  17.0793  18.7907  19.3978
    20.5201  20.8928  23.8837  24.8644  25.6134  25.9802  26.9712  27.4466
    29.9898  30.8512  30.9426  33.3875  34.6988  35.5362  35.7853  37.3537
    37.7457  39.8042  40.3693  41.8420

          k = 0.7667 0.1917 0.1917 (  1815 PWs)   bands (ev):

    -8.3667  -8.2424  -8.2379  -8.2131  -8.1887  -4.0507   0.3602   3.3785
     4.3681   8.5023  10.3495  13.3233  14.1794  17.2258  19.1022  19.1579
    20.3251  20.6032  23.6020  24.4745  25.6677  26.1588  26.9195  27.6277
    30.0418  31.3826  31.4745  33.7767  34.5206  35.4995  35.6917  37.5707
    37.6415  40.1764  40.5210  41.8955

          k = 0.7333 0.1833 0.1833 (  1816 PWs)   bands (ev):

    -8.3644  -8.2434  -8.2394  -8.2128  -8.1887  -4.1722   0.5201   3.5301
     4.4113   8.5465  10.2845  13.1442  14.0367  17.2102  18.9743  19.2557
    20.2233  20.5067  23.2861  24.0530  25.6749  26.3870  26.5027  28.3181
    30.1038  31.9364  32.0091  33.6818  34.4327  35.5739  35.8704  37.4385
    37.9513  40.5616  40.7005  41.9456

          k = 0.7000 0.1750 0.1750 (  1816 PWs)   bands (ev):

    -8.3618  -8.2445  -8.2410  -8.2123  -8.1888  -4.3010   0.6995   3.6897
     4.4641   8.5961  10.2327  12.9742  13.8871  17.0369  18.8170  19.1562
    20.2246  20.6975  22.9882  23.6307  25.4411  26.3756  26.6352  29.0187
    30.1789  32.4294  32.5100  33.1848  34.8191  35.4410  36.2943  37.3560
    38.2779  40.9045  40.9540  41.9395

          k = 0.6667 0.1667 0.1667 (  1820 PWs)   bands (ev):

    -8.3587  -8.2460  -8.2428  -8.2118  -8.1891  -4.4343   0.8966   3.8558
     4.5263   8.6493  10.1933  12.8156  13.7312  16.7564  18.6486  18.9095
    20.2825  21.0689  22.7635  23.2181  25.0056  26.4919  26.8952  29.6641
    30.3064  32.1412  33.1008  33.3807  35.2254  35.3000  36.6899  37.3721
    38.6177  41.1296  41.3362  41.7961

          k = 0.6333 0.1583 0.1583 (  1828 PWs)   bands (ev):

    -8.3552  -8.2476  -8.2448  -8.2112  -8.1895  -4.5699   1.1096   4.0270
     4.5978   8.7047  10.1638  12.6712  13.5688  16.4184  18.4608  18.6212
    20.3049  21.5100  22.6755  22.8248  24.5238  26.6914  27.1643  29.9815
    30.6907  31.5903  33.7043  33.9381  35.1581  35.5707  36.9808  37.5909
    38.9682  41.3718  41.4086  41.8045

          k = 0.6000 0.1500 0.1500 (  1830 PWs)   bands (ev):

    -8.3513  -8.2493  -8.2468  -8.2105  -8.1899  -4.7057   1.3371   4.2021
     4.6783   8.7612  10.1408  12.5441  13.3993  16.0544  18.2600  18.3314
    20.2186  21.9372  22.4969  22.7688  24.0424  26.9245  27.4418  29.8785
    30.9316  31.5874  34.3055  34.5444  35.0321  35.7932  37.2378  37.9927
    39.3259  41.0511  41.6241  42.1516

          k = 0.5667 0.1417 0.1417 (  1831 PWs)   bands (ev):

    -8.3470  -8.2512  -8.2490  -8.2098  -8.1905  -4.8402   1.5777   4.3801
     4.7677   8.8180  10.1190  12.4374  13.2222  15.6838  18.0514  18.0554
    20.0212  21.9314  22.6402  23.0270  23.5760  27.1760  27.7276  29.4456
    30.8279  32.2745  34.7150  35.1122  35.1619  35.8808  37.5886  38.4601
    39.6858  40.6526  41.8616  42.4700

          k = 0.5333 0.1333 0.1333 (  1835 PWs)   bands (ev):

    -8.3424  -8.2531  -8.2512  -8.2090  -8.1911  -4.9720   1.8303   4.5597
     4.8655   8.8747  10.0924  12.3533  13.0369  15.3202  17.8001  17.8363
    19.7559  21.6056  23.1075  23.1361  23.4213  27.4363  28.0217  28.8389
    30.8460  33.0362  34.6521  35.6792  35.6983  35.9647  38.0279  38.9379
    40.0361  40.2627  41.9215  42.4957

          k = 0.5000 0.1250 0.1250 (  1824 PWs)   bands (ev):

    -8.3375  -8.2550  -8.2533  -8.2080  -8.1916  -5.0999   2.0939   4.7400
     4.9714   8.9310  10.0545  12.2910  12.8431  14.9766  17.5694  17.6126
    19.4652  21.2619  22.6808  23.6795  23.8668  27.6721  28.2138  28.3245
    30.9231  33.8025  34.5234  35.7574  36.3255  36.4898  38.5125  39.3448
    39.9688  40.3388  41.6267  42.6195

          k = 0.4667 0.1167 0.1167 (  1828 PWs)   bands (ev):

    -8.3323  -8.2572  -8.2557  -8.2071  -8.1923  -5.2228   2.3676   4.9198
     5.0848   8.9866  10.0009  12.2437  12.6411  14.6678  17.3652  17.3760
    19.1786  20.9260  22.2669  24.2432  24.3663  27.4096  28.0855  28.6362
    31.0271  34.3914  34.5242  35.7408  36.9856  37.0995  38.9687  39.3729
    40.1369  40.4486  41.4143  42.2990

          k = 0.4333 0.1083 0.1083 (  1826 PWs)   bands (ev):

    -8.3270  -8.2593  -8.2580  -8.2060  -8.1930  -5.3401   2.6505   5.0982
     5.2052   9.0403   9.9303  12.1964  12.4314  14.4140  17.1219  17.1884
    18.9156  20.6024  21.8713  24.8217  24.8985  26.7632  28.3543  28.9572
    31.1472  34.2632  35.0248  35.9224  37.6399  37.6440  38.9963  39.6324
    40.2034  40.5800  41.5411  41.8997

          k = 0.4000 0.1000 0.1000 (  1826 PWs)   bands (ev):

    -8.3216  -8.2614  -8.2603  -8.2050  -8.1937  -5.4509   2.9420   5.2740
     5.3318   9.0880   9.8464  12.1262  12.2153  14.2391  16.8476  17.0391
    18.6881  20.2927  21.4941  25.4125  25.4492  26.1092  28.6549  29.2879
    31.2790  34.1412  35.1184  36.4809  37.8975  38.2677  39.0571  39.8193
    40.0744  40.9693  41.6217  41.8029

          k = 0.3667 0.0917 0.0917 (  1829 PWs)   bands (ev):

    -8.3162  -8.2635  -8.2624  -8.2041  -8.1943  -5.5548   3.2412   5.4461
     5.4635   9.1202   9.7608  11.9945  12.0116  14.1642  16.5544  16.9167
    18.5011  19.9978  21.1345  25.4370  26.0142  26.0468  28.9673  29.6287
    31.4200  34.0264  35.0431  37.0871  37.8400  38.6769  39.5048  39.6023
    40.2576  41.1519  41.8389  41.9387

          k = 0.3333 0.0833 0.0833 (  1825 PWs)   bands (ev):

    -8.3108  -8.2655  -8.2646  -8.2032  -8.1949  -5.6512   3.5474   5.5993
     5.6131   9.1164   9.6958  11.7715  11.8453  14.1945  16.2472  16.8200
    18.3543  19.7185  20.7916  24.8116  26.6255  26.6288  29.2878  29.9800
    31.5690  33.9196  34.9238  37.1572  38.1407  38.4946  39.9368  39.9410
    40.1993  41.5206  41.6497  42.3173

          k = 0.3000 0.0750 0.0750 (  1825 PWs)   bands (ev):

    -8.3054  -8.2674  -8.2667  -8.2023  -8.1955  -5.7396   3.8599   5.7377
     5.7738   9.0516   9.6779  11.5489  11.6382  14.3165  15.9338  16.7472
    18.2439  19.4555  20.4639  24.2018  27.2280  27.2449  29.6149  30.3424
    31.7249  33.8211  34.7873  36.8434  38.0585  38.5415  39.8338  40.3463
    40.7887  41.2312  41.9593  42.8476

          k = 0.2667 0.0667 0.0667 (  1831 PWs)   bands (ev):

    -8.3002  -8.2693  -8.2687  -8.2015  -8.1961  -5.8197   4.1779   5.8768
     5.9266   8.9224   9.7110  11.3301  11.4095  14.5083  15.6238  16.6965
    18.1653  19.2097  20.1496  23.6172  27.8363  27.8708  29.9471  30.7166
    31.8868  33.7311  34.6410  36.4697  37.5785  38.3965  40.0049  40.2097
    41.4261  41.5222  42.3352  43.4080

          k = 0.2333 0.0583 0.0583 (  1837 PWs)   bands (ev):

    -8.2954  -8.2710  -8.2706  -8.2009  -8.1967  -5.8911   4.5006   6.0143
     6.0698   8.7454   9.7779  11.1186  11.1771  14.7430  15.3333  16.6655
    18.1134  18.9821  19.8463  23.0642  28.4504  28.5009  30.2826  31.1034
    32.0537  33.6494  34.4870  36.0845  37.0908  37.9334  39.3133  40.8341
    42.0241  42.1544  42.6414  43.9958

          k = 0.2000 0.0500 0.0500 (  1840 PWs)   bands (ev):

    -8.2909  -8.2725  -8.2722  -8.2003  -8.1971  -5.9537   4.8268   6.1473
     6.2015   8.5346   9.8626  10.9188  10.9548  14.8997  15.1755  16.6516
    18.0838  18.7745  19.5513  22.5496  29.0670  29.1319  30.6193  31.5042
    32.2248  33.5758  34.3253  35.7017  36.6060  37.3859  38.5764  41.3690
    42.5303  42.8292  43.0434  44.5831

          k = 0.1667 0.0417 0.0417 (  1842 PWs)   bands (ev):

    -8.2868  -8.2739  -8.2737  -8.1998  -8.1975  -6.0070   5.1555   6.2723
     6.3193   8.2979   9.9544  10.7353  10.7530  14.7157  15.4088  16.6517
    18.0719  18.5887  19.2613  22.0828  29.6820  29.7589  30.9533  31.9208
    32.3991  33.5091  34.1538  35.3305  36.1303  36.8125  37.8363  41.6109
    43.0934  43.5036  43.6032  45.0893

          k = 0.1333 0.0333 0.0333 (  1834 PWs)   bands (ev):

    -8.2834  -8.2749  -8.2747  -8.1993  -8.1977  -6.0510   5.4850   6.3851
     6.4210   8.0402  10.0452  10.5733  10.5791  14.4926  15.7278  16.6622
    18.0733  18.4275  18.9739  21.6747  30.2891  30.3736  31.2785  32.3551
    32.5751  33.4477  33.9680  34.9827  35.6706  36.2362  37.1061  41.6273
    43.7903  44.1605  44.2083  45.4708

          k = 0.1000 0.0250 0.0250 (  1829 PWs)   bands (ev):

    -8.2805  -8.2757  -8.2756  -8.1988  -8.1980  -6.0853   5.8130   6.4807
     6.5039   7.7658  10.1274  10.4386  10.4388  14.3012  16.0562  16.6788
    18.0830  18.2945  18.6901  21.3382  30.8779  30.9620  31.5833  32.7505
    32.8063  33.3913  33.7591  34.6784  35.2394  35.6761  36.3937  41.5682
    44.5277  44.7847  44.8081  45.7582

          k = 0.0667 0.0167 0.0167 (  1829 PWs)   bands (ev):

    -8.2785  -8.2764  -8.2763  -8.1985  -8.1982  -6.1100   6.1351   6.5540
     6.5654   7.4807  10.1936  10.3358  10.3369  14.1553  16.3663  16.6963
    18.0956  18.1942  18.4208  21.0864  31.4279  31.4975  31.8469  32.9187
    33.1890  33.4213  33.5179  34.4509  34.8624  35.1585  35.7066  41.5020
    45.2317  45.3557  45.3781  45.9662

          k = 0.0333 0.0083 0.0083 (  1834 PWs)   bands (ev):

    -8.2774  -8.2768  -8.2768  -8.1984  -8.1983  -6.1248   6.4368   6.6004
     6.6034   7.2006  10.2367  10.2729  10.2734  14.0637  16.6130  16.7097
    18.1060  18.1314  18.2019  20.9303  31.8887  31.9222  32.0344  33.0579
    33.1701  33.2607  33.8715  34.3478  34.5896  34.7281  35.0532  41.4552
    45.7972  45.8256  45.8691  46.1206

          k = 0.0000 0.0000 0.0000 (  1837 PWs)   bands (ev):

    -8.2770  -8.2770  -8.2770  -8.1984  -8.1984  -6.1297   6.6162   6.6162
     6.6162   7.0283  10.2518  10.2518  10.2518  14.0325  16.7147  16.7147
    18.1099  18.1099  18.1099  20.8774  32.1039  32.1039  32.1039  33.1169
    33.1169  33.1169  34.3874  34.3874  34.4875  34.4875  34.4875  41.4386
    46.0402  46.0402  46.0402  46.2658

     Writing all to output data dir ./outdir/GaAs.save/ :
     XML data file, pseudopotentials, collected wavefunctions

     init_run     :      1.01s CPU      1.08s WALL (       1 calls)
     electrons    :    143.67s CPU    144.47s WALL (       1 calls)

     Called by init_run:
     wfcinit      :      0.00s CPU      0.00s WALL (       1 calls)
     potinit      :      0.07s CPU      0.08s WALL (       1 calls)
     hinit0       :      0.79s CPU      0.80s WALL (       1 calls)

     Called by electrons:
     c_bands      :    143.66s CPU    144.47s WALL (       1 calls)
     v_of_rho     :      0.06s CPU      0.07s WALL (       1 calls)
     newd         :      0.12s CPU      0.17s WALL (       1 calls)

     Called by c_bands:
     init_us_2    :      0.06s CPU      0.07s WALL (      91 calls)
     cegterg      :    138.77s CPU    139.53s WALL (     198 calls)

     Called by *egterg:
     cdiaghg      :      6.83s CPU      6.86s WALL (    3356 calls)
     h_psi        :     69.25s CPU     69.73s WALL (    3554 calls)
     s_psi        :      3.93s CPU      3.96s WALL (    3554 calls)
     g_psi        :      1.13s CPU      1.13s WALL (    3265 calls)

     Called by h_psi:
     h_psi:calbec :      4.88s CPU      4.91s WALL (    3554 calls)
     vloc_psi     :     60.23s CPU     60.67s WALL (    3554 calls)
                                        0.00s GPU  (    3554 calls)
     add_vuspsi   :      3.92s CPU      3.93s WALL (    3554 calls)

     General routines
     calbec       :      4.88s CPU      4.90s WALL (    3554 calls)
     fft          :      0.03s CPU      0.03s WALL (      13 calls)
     ffts         :      0.00s CPU      0.00s WALL (       1 calls)
     fftw         :     52.61s CPU     53.00s WALL (  132954 calls)
     interpolate  :      0.00s CPU      0.00s WALL (       1 calls)
     davcio       :      0.02s CPU      0.03s WALL (     182 calls)


     PWSCF        :   2m24.87s CPU   2m25.80s WALL


   This run was terminated on:  21:45: 0   9Dec2025            

=------------------------------------------------------------------------------=
   JOB DONE.
=------------------------------------------------------------------------------=
