
     Program BANDS v.7.5 starts on  9Dec2025 at 21:45:37 

     This program is part of the open-source Quantum ESPRESSO suite
     for quantum simulation of materials; please cite
         "P. Giannozzi et al., J. Phys.:Condens. Matter 21 395502 (2009);
         "P. Giannozzi et al., J. Phys.:Condens. Matter 29 465901 (2017);
         "P. Giannozzi et al., J. Chem. Phys. 152 154105 (2020);
          URL http://www.quantum-espresso.org", 
     in publications or presentations arising from this work. More details at
     http://www.quantum-espresso.org/quote

     Serial version
     21949 MiB available memory on the printing compute node when the environment starts


     Reading xml data from directory:

     ./outdir/GaAs.save/
     file Ga.pbesol-dnl-rrkjus_psl.1.0.0.UPF: wavefunction(s)  3D renormalized

     IMPORTANT: XC functional enforced from input :
     Exchange-correlation= PBESOL
                           (   1   4  10   8   0   0   0)
     Any further DFT definition will be discarded
     Please, verify this is what you really want


     G-vector sticks info
     --------------------
     sticks:   dense  smooth     PW     G-vecs:    dense   smooth      PW
     Sum        1573     769    241                41151    14361    2397

     Using Slab Decomposition

     Reading collected, re-writing distributed wavefunctions
     high-symmetry point:  0.5000 0.5000 0.5000   x coordinate   0.0000
     high-symmetry point:  0.0000 0.0000 0.0000   x coordinate   0.8660
     high-symmetry point:  1.0000 0.0000 0.0000   x coordinate   1.8660
     high-symmetry point:  1.0000 0.2500 0.2500   x coordinate   2.2196
     high-symmetry point:  0.0000 0.0000 0.0000   x coordinate   3.2802

     Plottable bands (eV) written to file GaAs.bands.dat.gnu
     Bands written to file GaAs.bands.dat

 **************************************************************************

                    xk=(   0.50000,   0.50000,   0.50000  )

     point group C_3v (3m)  
     there are  3 classes
     the character table:

       E     2C3   3s_v 
A_1    1.00  1.00  1.00
A_2    1.00  1.00 -1.00
E      2.00 -1.00  0.00

     the symmetry operations in each class and the name of the first element:

     E        1
                                                                 
     2C3      2    3
                                                                 
     3s_v     4    5    6
                                                                 

     Band symmetry, C_3v (3m)   point group:

     e(  1 -  1) =     -8.35125  eV     1   --> A_1  L_1       
     e(  2 -  3) =     -8.25738  eV     2   --> E    L_3       
     e(  4 -  5) =     -8.19361  eV     2   --> E    L_3       
     e(  6 -  6) =     -4.34945  eV     1   --> A_1  L_1       
     e(  7 -  7) =     -0.09900  eV     1   --> A_1  L_1       
     e(  8 -  9) =      5.46227  eV     2   --> E    L_3       
     e( 10 - 10) =      7.49323  eV     1   --> A_1  L_1       
     e( 11 - 12) =     11.14994  eV     2   --> E    L_3       
     e( 13 - 13) =     14.21753  eV     1   --> A_1  L_1       
     e( 14 - 14) =     16.90787  eV     1   --> A_1  L_1       
     e( 15 - 16) =     18.50305  eV     2   --> E    L_3       
     e( 17 - 17) =     19.00071  eV     1   --> A_1  L_1       
     e( 18 - 19) =     19.76675  eV     2   --> E    L_3       
     e( 20 - 20) =     26.05366  eV     1   --> A_1  L_1       
     e( 21 - 21) =     28.20934  eV     1   --> A_1  L_1       
     e( 22 - 23) =     28.95457  eV     2   --> E    L_3       
     e( 24 - 25) =     29.64663  eV     2   --> E    L_3       
     e( 26 - 26) =     32.72028  eV     1   --> A_1  L_1       
     e( 27 - 27) =     33.19788  eV     1   --> A_1  L_1       
     e( 28 - 29) =     34.62214  eV     2   --> E    L_3       
     e( 30 - 31) =     35.31529  eV     2   --> E    L_3       
     e( 32 - 32) =     36.22913  eV     1   --> A_2  L_2       
     e( 33 - 34) =     39.44079  eV     2   --> E    L_3       
     e( 35 - 35) =     39.93670  eV     1   --> A_1  L_1       
     e( 36 - 36) =     40.21071  eV     1   -->   ?

 **************************************************************************

 **************************************************************************

                    xk=(   0.47500,   0.47500,   0.47500  )

     Band symmetry, C_3v (3m)   point group:

     e(  1 -  1) =     -8.35097  eV     1   --> A_1  L_1       
     e(  2 -  3) =     -8.25773  eV     2   --> E    L_3       
     e(  4 -  5) =     -8.19394  eV     2   --> E    L_3       
     e(  6 -  6) =     -4.36841  eV     1   --> A_1  L_1       
     e(  7 -  7) =     -0.06536  eV     1   --> A_1  L_1       
     e(  8 -  9) =      5.46723  eV     2   --> E    L_3       
     e( 10 - 10) =      7.49839  eV     1   --> A_1  L_1       
     e( 11 - 12) =     11.15298  eV     2   --> E    L_3       
     e( 13 - 13) =     14.22044  eV     1   --> A_1  L_1       
     e( 14 - 14) =     16.78892  eV     1   --> A_1  L_1       
     e( 15 - 16) =     18.32407  eV     2   --> E    L_3       
     e( 17 - 17) =     19.11938  eV     1   --> A_1  L_1       
     e( 18 - 19) =     19.96998  eV     2   --> E    L_3       
     e( 20 - 20) =     25.80678  eV     1   --> A_1  L_1       
     e( 21 - 22) =     28.46437  eV     2   --> E    L_3       
     e( 23 - 23) =     28.47275  eV     1   --> A_1  L_1       
     e( 24 - 25) =     30.15133  eV     2   --> E    L_3       
     e( 26 - 26) =     32.11789  eV     1   --> A_1  L_1       
     e( 27 - 27) =     33.83249  eV     1   --> A_1  L_1       
     e( 28 - 29) =     34.60470  eV     2   --> E    L_3       
     e( 30 - 31) =     35.30301  eV     2   --> E    L_3       
     e( 32 - 32) =     36.21067  eV     1   --> A_2  L_2       
     e( 33 - 34) =     39.47470  eV     2   --> E    L_3       
     e( 35 - 35) =     39.90337  eV     1   --> A_1  L_1       
     e( 36 - 36) =     40.24143  eV     1   -->   ?

 **************************************************************************

 **************************************************************************

                    xk=(   0.45000,   0.45000,   0.45000  )

     Band symmetry, C_3v (3m)   point group:

     e(  1 -  1) =     -8.34964  eV     1   --> A_1  L_1       
     e(  2 -  3) =     -8.25795  eV     2   --> E    L_3       
     e(  4 -  5) =     -8.19415  eV     2   --> E    L_3       
     e(  6 -  6) =     -4.42338  eV     1   --> A_1  L_1       
     e(  7 -  7) =      0.03360  eV     1   --> A_1  L_1       
     e(  8 -  9) =      5.48211  eV     2   --> E    L_3       
     e( 10 - 10) =      7.51383  eV     1   --> A_1  L_1       
     e( 11 - 12) =     11.16174  eV     2   --> E    L_3       
     e( 13 - 13) =     14.22699  eV     1   --> A_1  L_1       
     e( 14 - 14) =     16.49713  eV     1   --> A_1  L_1       
     e( 15 - 16) =     17.95602  eV     2   --> E    L_3       
     e( 17 - 17) =     19.40677  eV     1   --> A_1  L_1       
     e( 18 - 19) =     20.41143  eV     2   --> E    L_3       
     e( 20 - 20) =     25.28152  eV     1   --> A_1  L_1       
     e( 21 - 22) =     27.75436  eV     2   --> E    L_3       
     e( 23 - 23) =     29.02713  eV     1   --> A_1  L_1       
     e( 24 - 25) =     30.90416  eV     2   --> E    L_3       
     e( 26 - 26) =     31.39923  eV     1   --> A_1  L_1       
     e( 27 - 28) =     34.55454  eV     2   --> E    L_3       
     e( 29 - 29) =     34.67208  eV     1   --> A_1  L_1       
     e( 30 - 31) =     35.26850  eV     2   --> E    L_3       
     e( 32 - 32) =     36.15713  eV     1   --> A_2  L_2       
     e( 33 - 34) =     39.57500  eV     2   --> E    L_3       
     e( 35 - 35) =     39.81598  eV     1   --> A_1  L_1       
     e( 36 - 36) =     40.33285  eV     1   -->   ?

 **************************************************************************

 **************************************************************************

                    xk=(   0.42500,   0.42500,   0.42500  )

     Band symmetry, C_3v (3m)   point group:

     e(  1 -  1) =     -8.34778  eV     1   --> A_1  L_1       
     e(  2 -  3) =     -8.25841  eV     2   --> E    L_3       
     e(  4 -  5) =     -8.19471  eV     2   --> E    L_3       
     e(  6 -  6) =     -4.50920  eV     1   --> A_1  L_1       
     e(  7 -  7) =      0.19262  eV     1   --> A_1  L_1       
     e(  8 -  9) =      5.50680  eV     2   --> E    L_3       
     e( 10 - 10) =      7.53944  eV     1   --> A_1  L_1       
     e( 11 - 12) =     11.17501  eV     2   --> E    L_3       
     e( 13 - 13) =     14.22922  eV     1   --> A_1  L_1       
     e( 14 - 14) =     16.13421  eV     1   --> A_1  L_1       
     e( 15 - 16) =     17.54950  eV     2   --> E    L_3       
     e( 17 - 17) =     19.74901  eV     1   --> A_1  L_1       
     e( 18 - 19) =     20.94118  eV     2   --> E    L_3       
     e( 20 - 20) =     24.71210  eV     1   --> A_1  L_1       
     e( 21 - 22) =     27.03866  eV     2   --> E    L_3       
     e( 23 - 23) =     29.47350  eV     1   --> A_1  L_1       
     e( 24 - 24) =     30.93185  eV     1   --> A_1  L_1       
     e( 25 - 26) =     31.68738  eV     2   --> E    L_3       
     e( 27 - 28) =     34.47731  eV     2   --> E    L_3       
     e( 29 - 30) =     35.21733  eV     2   --> E    L_3       
     e( 31 - 31) =     35.52506  eV     1   --> A_1  L_1       
     e( 32 - 32) =     36.07335  eV     1   --> A_2  L_2       
     e( 33 - 33) =     39.70372  eV     1   --> A_1  L_1       
     e( 34 - 35) =     39.73688  eV     2   --> E    L_3       
     e( 36 - 36) =     40.48152  eV     1   -->   ?

 **************************************************************************

 **************************************************************************

                    xk=(   0.40000,   0.40000,   0.40000  )

     Band symmetry, C_3v (3m)   point group:

     e(  1 -  1) =     -8.34506  eV     1   --> A_1  L_1       
     e(  2 -  3) =     -8.25889  eV     2   --> E    L_3       
     e(  4 -  5) =     -8.19507  eV     2   --> E    L_3       
     e(  6 -  6) =     -4.61894  eV     1   --> A_1  L_1       
     e(  7 -  7) =      0.40457  eV     1   --> A_1  L_1       
     e(  8 -  9) =      5.54112  eV     2   --> E    L_3       
     e( 10 - 10) =      7.57499  eV     1   --> A_1  L_1       
     e( 11 - 12) =     11.19080  eV     2   --> E    L_3       
     e( 13 - 13) =     14.20866  eV     1   --> A_1  L_1       
     e( 14 - 14) =     15.77153  eV     1   --> A_1  L_1       
     e( 15 - 16) =     17.15098  eV     2   --> E    L_3       
     e( 17 - 17) =     20.05062  eV     1   --> A_1  L_1       
     e( 18 - 19) =     21.51405  eV     2   --> E    L_3       
     e( 20 - 20) =     24.21743  eV     1   --> A_1  L_1       
     e( 21 - 22) =     26.33584  eV     2   --> E    L_3       
     e( 23 - 23) =     29.25635  eV     1   --> A_1  L_1       
     e( 24 - 24) =     31.20604  eV     1   --> A_1  L_1       
     e( 25 - 26) =     32.47273  eV     2   --> E    L_3       
     e( 27 - 28) =     34.38309  eV     2   --> E    L_3       
     e( 29 - 30) =     35.16104  eV     2   --> E    L_3       
     e( 31 - 31) =     35.96596  eV     1   --> A_2  L_2       
     e( 32 - 32) =     36.35966  eV     1   --> A_1  L_1       
     e( 33 - 33) =     39.60569  eV     1   --> A_1  L_1       
     e( 34 - 35) =     39.95401  eV     2   --> E    L_3       
     e( 36 - 36) =     40.68287  eV     1   -->   ?

 **************************************************************************

 **************************************************************************

                    xk=(   0.37500,   0.37500,   0.37500  )

     Band symmetry, C_3v (3m)   point group:

     e(  1 -  1) =     -8.34176  eV     1   --> A_1  L_1       
     e(  2 -  3) =     -8.25963  eV     2   --> E    L_3       
     e(  4 -  5) =     -8.19564  eV     2   --> E    L_3       
     e(  6 -  6) =     -4.74539  eV     1   --> A_1  L_1       
     e(  7 -  7) =      0.66195  eV     1   --> A_1  L_1       
     e(  8 -  9) =      5.58482  eV     2   --> E    L_3       
     e( 10 - 10) =      7.62011  eV     1   --> A_1  L_1       
     e( 11 - 12) =     11.20619  eV     2   --> E    L_3       
     e( 13 - 13) =     14.12862  eV     1   --> A_1  L_1       
     e( 14 - 14) =     15.46989  eV     1   --> A_1  L_1       
     e( 15 - 16) =     16.77773  eV     2   --> E    L_3       
     e( 17 - 17) =     20.21507  eV     1   --> A_1  L_1       
     e( 18 - 19) =     22.11340  eV     2   --> E    L_3       
     e( 20 - 20) =     23.89710  eV     1   --> A_1  L_1       
     e( 21 - 22) =     25.65230  eV     2   --> E    L_3       
     e( 23 - 23) =     28.63561  eV     1   --> A_1  L_1       
     e( 24 - 24) =     31.93707  eV     1   --> A_1  L_1       
     e( 25 - 26) =     33.21968  eV     2   --> E    L_3       
     e( 27 - 28) =     34.29268  eV     2   --> E    L_3       
     e( 29 - 30) =     35.12639  eV     2   --> E    L_3       
     e( 31 - 31) =     35.84196  eV     1   --> A_2  L_2       
     e( 32 - 32) =     37.12035  eV     1   --> A_1  L_1       
     e( 33 - 33) =     39.58516  eV     1   --> A_1  L_1       
     e( 34 - 35) =     40.21919  eV     2   --> E    L_3       
     e( 36 - 36) =     40.93153  eV     1   -->   ?

 **************************************************************************

 **************************************************************************

                    xk=(   0.35000,   0.35000,   0.35000  )

     Band symmetry, C_3v (3m)   point group:

     e(  1 -  1) =     -8.33786  eV     1   --> A_1  L_1       
     e(  2 -  3) =     -8.26059  eV     2   --> E    L_3       
     e(  4 -  5) =     -8.19624  eV     2   --> E    L_3       
     e(  6 -  6) =     -4.88198  eV     1   --> A_1  L_1       
     e(  7 -  7) =      0.95783  eV     1   --> A_1  L_1       
     e(  8 -  9) =      5.63756  eV     2   --> E    L_3       
     e( 10 - 10) =      7.67427  eV     1   --> A_1  L_1       
     e( 11 - 12) =     11.21739  eV     2   --> E    L_3       
     e( 13 - 13) =     13.94331  eV     1   --> A_1  L_1       
     e( 14 - 14) =     15.28604  eV     1   --> A_1  L_1       
     e( 15 - 16) =     16.43958  eV     2   --> E    L_3       
     e( 17 - 17) =     20.15777  eV     1   --> A_1  L_1       
     e( 18 - 19) =     22.72597  eV     2   --> E    L_3       
     e( 20 - 20) =     23.83654  eV     1   --> A_1  L_1       
     e( 21 - 22) =     24.99709  eV     2   --> E    L_3       
     e( 23 - 23) =     27.94334  eV     1   --> A_1  L_1       
     e( 24 - 24) =     32.78112  eV     1   --> A_1  L_1       
     e( 25 - 26) =     33.76295  eV     2   --> E    L_3       
     e( 27 - 28) =     34.29137  eV     2   --> E    L_3       
     e( 29 - 30) =     35.20252  eV     2   --> E    L_3       
     e( 31 - 31) =     35.70781  eV     1   --> A_2  L_2       
     e( 32 - 32) =     37.68841  eV     1   --> A_1  L_1       
     e( 33 - 33) =     39.76493  eV     1   --> A_1  L_1       
     e( 34 - 35) =     40.52564  eV     2   --> E    L_3       
     e( 36 - 36) =     41.22223  eV     1   -->   ?

 **************************************************************************

 **************************************************************************

                    xk=(   0.32500,   0.32500,   0.32500  )

     Band symmetry, C_3v (3m)   point group:

     e(  1 -  1) =     -8.33342  eV     1   --> A_1  L_1       
     e(  2 -  3) =     -8.26166  eV     2   --> E    L_3       
     e(  4 -  5) =     -8.19683  eV     2   --> E    L_3       
     e(  6 -  6) =     -5.02319  eV     1   --> A_1  L_1       
     e(  7 -  7) =      1.28621  eV     1   --> A_1  L_1       
     e(  8 -  9) =      5.69886  eV     2   --> E    L_3       
     e( 10 - 10) =      7.73663  eV     1   --> A_1  L_1       
     e( 11 - 12) =     11.21989  eV     2   --> E    L_3       
     e( 13 - 13) =     13.64679  eV     1   --> A_1  L_1       
     e( 14 - 14) =     15.23054  eV     1   --> A_1  L_1       
     e( 15 - 16) =     16.14425  eV     2   --> E    L_3       
     e( 17 - 17) =     19.87473  eV     1   --> A_1  L_1       
     e( 18 - 19) =     23.30699  eV     2   --> E    L_3       
     e( 20 - 20) =     24.04062  eV     1   --> A_1  L_1       
     e( 21 - 22) =     24.41287  eV     2   --> E    L_3       
     e( 23 - 23) =     27.24835  eV     1   --> A_1  L_1       
     e( 24 - 24) =     33.66121  eV     1   --> A_1  L_1       
     e( 25 - 26) =     33.84045  eV     2   --> E    L_3       
     e( 27 - 28) =     34.43034  eV     2   --> E    L_3       
     e( 29 - 29) =     35.56899  eV     1   --> A_2  L_2       
     e( 30 - 31) =     35.60861  eV     2   --> E    L_3       
     e( 32 - 32) =     37.94628  eV     1   --> A_1  L_1       
     e( 33 - 33) =     40.26380  eV     1   --> A_1  L_1       
     e( 34 - 35) =     40.86693  eV     2   --> E    L_3       
     e( 36 - 36) =     41.55003  eV     1   -->   ?

 **************************************************************************

 **************************************************************************

                    xk=(   0.30000,   0.30000,   0.30000  )

     Band symmetry, C_3v (3m)   point group:

     e(  1 -  1) =     -8.32833  eV     1   --> A_1  L_1       
     e(  2 -  3) =     -8.26275  eV     2   --> E    L_3       
     e(  4 -  5) =     -8.19717  eV     2   --> E    L_3       
     e(  6 -  6) =     -5.16459  eV     1   --> A_1  L_1       
     e(  7 -  7) =      1.64210  eV     1   --> A_1  L_1       
     e(  8 -  9) =      5.76811  eV     2   --> E    L_3       
     e( 10 - 10) =      7.80596  eV     1   --> A_1  L_1       
     e( 11 - 12) =     11.20875  eV     2   --> E    L_3       
     e( 13 - 13) =     13.28008  eV     1   --> A_1  L_1       
     e( 14 - 14) =     15.26320  eV     1   --> A_1  L_1       
     e( 15 - 16) =     15.89871  eV     2   --> E    L_3       
     e( 17 - 17) =     19.44259  eV     1   --> A_1  L_1       
     e( 18 - 19) =     23.44512  eV     2   --> E    L_3       
     e( 20 - 21) =     24.30983  eV     2   --> E    L_3       
     e( 22 - 22) =     24.43207  eV     1   --> A_1  L_1       
     e( 23 - 23) =     26.57209  eV     1   --> A_1  L_1       
     e( 24 - 25) =     33.74442  eV     2   --> E    L_3       
     e( 26 - 27) =     34.44167  eV     2   --> E    L_3       
     e( 28 - 28) =     34.54779  eV     1   --> A_1  L_1       
     e( 29 - 29) =     35.42996  eV     1   --> A_2  L_2       
     e( 30 - 31) =     36.32678  eV     2   --> E    L_3       
     e( 32 - 32) =     37.96873  eV     1   --> A_1  L_1       
     e( 33 - 33) =     41.00825  eV     1   --> A_1  L_1       
     e( 34 - 35) =     41.23659  eV     2   --> E    L_3       
     e( 36 - 36) =     41.90983  eV     1   -->   ?

 **************************************************************************

 **************************************************************************

                    xk=(   0.27500,   0.27500,   0.27500  )

     Band symmetry, C_3v (3m)   point group:

     e(  1 -  1) =     -8.32276  eV     1   --> A_1  L_1       
     e(  2 -  3) =     -8.26411  eV     2   --> E    L_3       
     e(  4 -  5) =     -8.19754  eV     2   --> E    L_3       
     e(  6 -  6) =     -5.30272  eV     1   --> A_1  L_1       
     e(  7 -  7) =      2.02129  eV     1   --> A_1  L_1       
     e(  8 -  9) =      5.84453  eV     2   --> E    L_3       
     e( 10 - 10) =      7.88041  eV     1   --> A_1  L_1       
     e( 11 - 12) =     11.17932  eV     2   --> E    L_3       
     e( 13 - 13) =     12.88213  eV     1   --> A_1  L_1       
     e( 14 - 14) =     15.34240  eV     1   --> A_1  L_1       
     e( 15 - 16) =     15.70908  eV     2   --> E    L_3       
     e( 17 - 17) =     18.94326  eV     1   --> A_1  L_1       
     e( 18 - 19) =     22.94733  eV     2   --> E    L_3       
     e( 20 - 21) =     24.88016  eV     2   --> E    L_3       
     e( 22 - 22) =     24.91002  eV     1   --> A_1  L_1       
     e( 23 - 23) =     25.94635  eV     1   --> A_1  L_1       
     e( 24 - 25) =     33.62257  eV     2   --> E    L_3       
     e( 26 - 27) =     34.37937  eV     2   --> E    L_3       
     e( 28 - 28) =     35.29421  eV     1   --> A_2  L_2       
     e( 29 - 29) =     35.40655  eV     1   --> A_1  L_1       
     e( 30 - 31) =     37.15870  eV     2   --> E    L_3       
     e( 32 - 32) =     37.90713  eV     1   --> A_1  L_1       
     e( 33 - 34) =     41.62524  eV     2   --> E    L_3       
     e( 35 - 35) =     41.85472  eV     1   --> A_1  L_1       
     e( 36 - 36) =     42.29444  eV     1   -->   ?

 **************************************************************************

 **************************************************************************

                    xk=(   0.25000,   0.25000,   0.25000  )

     Band symmetry, C_3v (3m)   point group:

     e(  1 -  1) =     -8.31712  eV     1   --> A_1  L_1       
     e(  2 -  3) =     -8.26567  eV     2   --> E    L_3       
     e(  4 -  5) =     -8.19809  eV     2   --> E    L_3       
     e(  6 -  6) =     -5.43489  eV     1   --> A_1  L_1       
     e(  7 -  7) =      2.42023  eV     1   --> A_1  L_1       
     e(  8 -  9) =      5.92712  eV     2   --> E    L_3       
     e( 10 - 10) =      7.95719  eV     1   --> A_1  L_1       
     e( 11 - 12) =     11.12823  eV     2   --> E    L_3       
     e( 13 - 13) =     12.47532  eV     1   --> A_1  L_1       
     e( 14 - 14) =     15.43821  eV     1   --> A_1  L_1       
     e( 15 - 16) =     15.57996  eV     2   --> E    L_3       
     e( 17 - 17) =     18.43540  eV     1   --> A_1  L_1       
     e( 18 - 19) =     22.37387  eV     2   --> E    L_3       
     e( 20 - 20) =     25.06265  eV     1   --> A_1  L_1       
     e( 21 - 22) =     25.56300  eV     2   --> E    L_3       
     e( 23 - 23) =     25.73895  eV     1   --> A_1  L_1       
     e( 24 - 25) =     33.49855  eV     2   --> E    L_3       
     e( 26 - 27) =     34.29564  eV     2   --> E    L_3       
     e( 28 - 28) =     35.16445  eV     1   --> A_2  L_2       
     e( 29 - 29) =     36.14865  eV     1   --> A_1  L_1       
     e( 30 - 30) =     37.90519  eV     1   --> A_1  L_1       
     e( 31 - 32) =     38.02810  eV     2   --> E    L_3       
     e( 33 - 34) =     42.00639  eV     2   --> E    L_3       
     e( 35 - 36) =     42.68194  eV     2   --> E    L_3       

 **************************************************************************

 **************************************************************************

                    xk=(   0.22500,   0.22500,   0.22500  )

     Band symmetry, C_3v (3m)   point group:

     e(  1 -  1) =     -8.31095  eV     1   --> A_1  L_1       
     e(  2 -  3) =     -8.26717  eV     2   --> E    L_3       
     e(  4 -  5) =     -8.19823  eV     2   --> E    L_3       
     e(  6 -  6) =     -5.55899  eV     1   --> A_1  L_1       
     e(  7 -  7) =      2.83576  eV     1   --> A_1  L_1       
     e(  8 -  9) =      6.01459  eV     2   --> E    L_3       
     e( 10 - 10) =      8.03202  eV     1   --> A_1  L_1       
     e( 11 - 12) =     11.05442  eV     2   --> E    L_3       
     e( 13 - 13) =     12.07263  eV     1   --> A_1  L_1       
     e( 14 - 15) =     15.51368  eV     2   --> E    L_3       
     e( 16 - 16) =     15.52128  eV     1   --> A_1  L_1       
     e( 17 - 17) =     17.96628  eV     1   --> A_1  L_1       
     e( 18 - 19) =     21.80445  eV     2   --> E    L_3       
     e( 20 - 20) =     24.54022  eV     1   --> A_1  L_1       
     e( 21 - 21) =     26.27574  eV     1   --> A_1  L_1       
     e( 22 - 23) =     26.27837  eV     2   --> E    L_3       
     e( 24 - 25) =     33.37963  eV     2   --> E    L_3       
     e( 26 - 27) =     34.20785  eV     2   --> E    L_3       
     e( 28 - 28) =     35.04280  eV     1   --> A_2  L_2       
     e( 29 - 29) =     36.54982  eV     1   --> A_1  L_1       
     e( 30 - 30) =     38.20300  eV     1   --> A_1  L_1       
     e( 31 - 32) =     38.89995  eV     2   --> E    L_3       
     e( 33 - 34) =     42.18424  eV     2   --> E    L_3       
     e( 35 - 36) =     42.90332  eV     2   --> E    L_3       

 **************************************************************************

 **************************************************************************

                    xk=(   0.20000,   0.20000,   0.20000  )

     Band symmetry, C_3v (3m)   point group:

     e(  1 -  1) =     -8.30526  eV     1   --> A_1  L_1       
     e(  2 -  3) =     -8.26887  eV     2   --> E    L_3       
     e(  4 -  5) =     -8.19849  eV     2   --> E    L_3       
     e(  6 -  6) =     -5.67340  eV     1   --> A_1  L_1       
     e(  7 -  7) =      3.26498  eV     1   --> A_1  L_1       
     e(  8 -  9) =      6.10533  eV     2   --> E    L_3       
     e( 10 - 10) =      8.09840  eV     1   --> A_1  L_1       
     e( 11 - 12) =     10.95974  eV     2   --> E    L_3       
     e( 13 - 13) =     11.68376  eV     1   --> A_1  L_1       
     e( 14 - 15) =     15.50952  eV     2   --> E    L_3       
     e( 16 - 16) =     15.55051  eV     1   --> A_1  L_1       
     e( 17 - 17) =     17.58842  eV     1   --> A_1  L_1       
     e( 18 - 19) =     21.25087  eV     2   --> E    L_3       
     e( 20 - 20) =     23.95975  eV     1   --> A_1  L_1       
     e( 21 - 21) =     26.92650  eV     1   --> A_1  L_1       
     e( 22 - 23) =     27.01386  eV     2   --> E    L_3       
     e( 24 - 25) =     33.26942  eV     2   --> E    L_3       
     e( 26 - 27) =     34.12299  eV     2   --> E    L_3       
     e( 28 - 28) =     34.93085  eV     1   --> A_2  L_2       
     e( 29 - 29) =     36.52803  eV     1   --> A_1  L_1       
     e( 30 - 30) =     38.87907  eV     1   --> A_1  L_1       
     e( 31 - 32) =     39.70460  eV     2   --> E    L_3       
     e( 33 - 34) =     41.66826  eV     2   --> E    L_3       
     e( 35 - 36) =     43.15422  eV     2   --> E    L_3       

 **************************************************************************

 **************************************************************************

                    xk=(   0.17500,   0.17500,   0.17500  )

     Band symmetry, C_3v (3m)   point group:

     e(  1 -  1) =     -8.29939  eV     1   --> A_1  L_1       
     e(  2 -  3) =     -8.27044  eV     2   --> E    L_3       
     e(  4 -  5) =     -8.19858  eV     2   --> E    L_3       
     e(  6 -  6) =     -5.77683  eV     1   --> A_1  L_1       
     e(  7 -  7) =      3.70503  eV     1   --> A_1  L_1       
     e(  8 -  9) =      6.19734  eV     2   --> E    L_3       
     e( 10 - 10) =      8.14642  eV     1   --> A_1  L_1       
     e( 11 - 12) =     10.84890  eV     2   --> E    L_3       
     e( 13 - 13) =     11.31880  eV     1   --> A_1  L_1       
     e( 14 - 14) =     15.47450  eV     1   --> A_1  L_1       
     e( 15 - 16) =     15.56405  eV     2   --> E    L_3       
     e( 17 - 17) =     17.36133  eV     1   --> A_1  L_1       
     e( 18 - 19) =     20.71730  eV     2   --> E    L_3       
     e( 20 - 20) =     23.39569  eV     1   --> A_1  L_1       
     e( 21 - 21) =     27.60984  eV     1   --> A_1  L_1       
     e( 22 - 23) =     27.76474  eV     2   --> E    L_3       
     e( 24 - 25) =     33.17043  eV     2   --> E    L_3       
     e( 26 - 27) =     34.04509  eV     2   --> E    L_3       
     e( 28 - 28) =     34.82987  eV     1   --> A_2  L_2       
     e( 29 - 29) =     36.29227  eV     1   --> A_1  L_1       
     e( 30 - 30) =     39.70977  eV     1   --> A_1  L_1       
     e( 31 - 32) =     40.01494  eV     2   --> E    L_3       
     e( 33 - 34) =     41.37306  eV     2   --> E    L_3       
     e( 35 - 35) =     43.29969  eV     1   --> A_1  L_1       
     e( 36 - 36) =     43.59576  eV     1   -->   ?

 **************************************************************************

 **************************************************************************

                    xk=(   0.15000,   0.15000,   0.15000  )

     Band symmetry, C_3v (3m)   point group:

     e(  1 -  1) =     -8.29402  eV     1   --> A_1  L_1       
     e(  2 -  3) =     -8.27190  eV     2   --> E    L_3       
     e(  4 -  5) =     -8.19856  eV     2   --> E    L_3       
     e(  6 -  6) =     -5.86827  eV     1   --> A_1  L_1       
     e(  7 -  7) =      4.15299  eV     1   --> A_1  L_1       
     e(  8 -  9) =      6.28811  eV     2   --> E    L_3       
     e( 10 - 10) =      8.16167  eV     1   --> A_1  L_1       
     e( 11 - 12) =     10.72876  eV     2   --> E    L_3       
     e( 13 - 13) =     10.99042  eV     1   --> A_1  L_1       
     e( 14 - 14) =     15.27417  eV     1   --> A_1  L_1       
     e( 15 - 16) =     15.67152  eV     2   --> E    L_3       
     e( 17 - 17) =     17.31008  eV     1   --> A_1  L_1       
     e( 18 - 19) =     20.20652  eV     2   --> E    L_3       
     e( 20 - 20) =     22.85953  eV     1   --> A_1  L_1       
     e( 21 - 21) =     28.31049  eV     1   --> A_1  L_1       
     e( 22 - 23) =     28.52708  eV     2   --> E    L_3       
     e( 24 - 25) =     33.08479  eV     2   --> E    L_3       
     e( 26 - 27) =     33.97696  eV     2   --> E    L_3       
     e( 28 - 28) =     34.74081  eV     1   --> A_2  L_2       
     e( 29 - 29) =     35.95279  eV     1   --> A_1  L_1       
     e( 30 - 31) =     39.38298  eV     2   --> E    L_3       
     e( 32 - 32) =     40.54572  eV     1   --> A_1  L_1       
     e( 33 - 34) =     41.98417  eV     2   --> E    L_3       
     e( 35 - 35) =     43.11565  eV     1   --> A_1  L_1       
     e( 36 - 36) =     44.07958  eV     1   -->   ?

 **************************************************************************

 **************************************************************************

                    xk=(   0.12500,   0.12500,   0.12500  )

     Band symmetry, C_3v (3m)   point group:

     e(  1 -  1) =     -8.28944  eV     1   --> A_1  L_1       
     e(  2 -  3) =     -8.27333  eV     2   --> E    L_3       
     e(  4 -  5) =     -8.19866  eV     2   --> E    L_3       
     e(  6 -  6) =     -5.94690  eV     1   --> A_1  L_1       
     e(  7 -  7) =      4.60565  eV     1   --> A_1  L_1       
     e(  8 -  9) =      6.37465  eV     2   --> E    L_3       
     e( 10 - 10) =      8.12523  eV     1   --> A_1  L_1       
     e( 11 - 12) =     10.60734  eV     2   --> E    L_3       
     e( 13 - 13) =     10.71428  eV     1   --> A_1  L_1       
     e( 14 - 14) =     14.99424  eV     1   --> A_1  L_1       
     e( 15 - 16) =     15.82458  eV     2   --> E    L_3       
     e( 17 - 17) =     17.39446  eV     1   --> A_1  L_1       
     e( 18 - 19) =     19.72147  eV     2   --> E    L_3       
     e( 20 - 20) =     22.35827  eV     1   --> A_1  L_1       
     e( 21 - 21) =     29.02032  eV     1   --> A_1  L_1       
     e( 22 - 23) =     29.29560  eV     2   --> E    L_3       
     e( 24 - 25) =     33.01497  eV     2   --> E    L_3       
     e( 26 - 27) =     33.92109  eV     2   --> E    L_3       
     e( 28 - 28) =     34.66440  eV     1   --> A_2  L_2       
     e( 29 - 29) =     35.54145  eV     1   --> A_1  L_1       
     e( 30 - 31) =     38.51383  eV     2   --> E    L_3       
     e( 32 - 32) =     41.24699  eV     1   --> A_1  L_1       
     e( 33 - 34) =     42.81963  eV     2   --> E    L_3       
     e( 35 - 35) =     43.06690  eV     1   --> A_1  L_1       
     e( 36 - 36) =     44.57409  eV     1   -->   ?

 **************************************************************************

 **************************************************************************

                    xk=(   0.10000,   0.10000,   0.10000  )

     Band symmetry, C_3v (3m)   point group:

     e(  1 -  1) =     -8.28517  eV     1   --> A_1  L_1       
     e(  2 -  3) =     -8.27454  eV     2   --> E    L_3       
     e(  4 -  5) =     -8.19851  eV     2   --> E    L_3       
     e(  6 -  6) =     -6.01206  eV     1   --> A_1  L_1       
     e(  7 -  7) =      5.05927  eV     1   --> A_1  L_1       
     e(  8 -  9) =      6.45347  eV     2   --> E    L_3       
     e( 10 - 10) =      8.01791  eV     1   --> A_1  L_1       
     e( 11 - 12) =     10.49302  eV     2   --> E    L_3       
     e( 13 - 13) =     10.50515  eV     1   --> A_1  L_1       
     e( 14 - 14) =     14.69708  eV     1   --> A_1  L_1       
     e( 15 - 16) =     16.01444  eV     2   --> E    L_3       
     e( 17 - 17) =     17.55451  eV     1   --> A_1  L_1       
     e( 18 - 19) =     19.26663  eV     2   --> E    L_3       
     e( 20 - 20) =     21.90039  eV     1   --> A_1  L_1       
     e( 21 - 21) =     29.73258  eV     1   --> A_1  L_1       
     e( 22 - 23) =     30.06080  eV     2   --> E    L_3       
     e( 24 - 25) =     32.96481  eV     2   --> E    L_3       
     e( 26 - 27) =     33.88137  eV     2   --> E    L_3       
     e( 28 - 28) =     34.60122  eV     1   --> A_2  L_2       
     e( 29 - 29) =     35.07039  eV     1   --> A_1  L_1       
     e( 30 - 31) =     37.61653  eV     2   --> E    L_3       
     e( 32 - 32) =     41.59178  eV     1   --> A_1  L_1       
     e( 33 - 33) =     43.40083  eV     1   --> A_1  L_1       
     e( 34 - 35) =     43.66478  eV     2   --> E    L_3       
     e( 36 - 36) =     45.05712  eV     1   -->   ?

 **************************************************************************

 **************************************************************************

                    xk=(   0.07500,   0.07500,   0.07500  )

     Band symmetry, C_3v (3m)   point group:

     e(  1 -  1) =     -8.28171  eV     1   --> A_1  L_1       
     e(  2 -  3) =     -8.27558  eV     2   --> E    L_3       
     e(  4 -  5) =     -8.19842  eV     2   --> E    L_3       
     e(  6 -  6) =     -6.06326  eV     1   --> A_1  L_1       
     e(  7 -  7) =      5.50910  eV     1   --> A_1  L_1       
     e(  8 -  9) =      6.52068  eV     2   --> E    L_3       
     e( 10 - 10) =      7.82938  eV     1   --> A_1  L_1       
     e( 11 - 11) =     10.36821  eV     1   --> A_1  L_1       
     e( 12 - 13) =     10.39386  eV     2   --> E    L_3       
     e( 14 - 14) =     14.42765  eV     1   --> A_1  L_1       
     e( 15 - 16) =     16.22920  eV     2   --> E    L_3       
     e( 17 - 17) =     17.74388  eV     1   --> A_1  L_1       
     e( 18 - 19) =     18.84987  eV     2   --> E    L_3       
     e( 20 - 20) =     21.49873  eV     1   --> A_1  L_1       
     e( 21 - 21) =     30.43904  eV     1   --> A_1  L_1       
     e( 22 - 23) =     30.80193  eV     2   --> E    L_3       
     e( 24 - 25) =     32.94212  eV     2   --> E    L_3       
     e( 26 - 27) =     33.86566  eV     2   --> E    L_3       
     e( 28 - 28) =     34.54894  eV     1   --> A_1  L_1       
     e( 29 - 29) =     34.55168  eV     1   --> A_2  L_2       
     e( 30 - 31) =     36.73034  eV     2   --> E    L_3       
     e( 32 - 32) =     41.60817  eV     1   --> A_1  L_1       
     e( 33 - 33) =     44.09704  eV     1   --> A_1  L_1       
     e( 34 - 35) =     44.46741  eV     2   --> E    L_3       
     e( 36 - 36) =     45.49970  eV     1   -->   ?

 **************************************************************************

 **************************************************************************

                    xk=(   0.05000,   0.05000,   0.05000  )

     Band symmetry, C_3v (3m)   point group:

     e(  1 -  1) =     -8.27899  eV     1   --> A_1  L_1       
     e(  2 -  3) =     -8.27629  eV     2   --> E    L_3       
     e(  4 -  5) =     -8.19831  eV     2   --> E    L_3       
     e(  6 -  6) =     -6.10010  eV     1   --> A_1  L_1       
     e(  7 -  7) =      5.94792  eV     1   --> A_1  L_1       
     e(  8 -  9) =      6.57237  eV     2   --> E    L_3       
     e( 10 - 10) =      7.56606  eV     1   --> A_1  L_1       
     e( 11 - 11) =     10.29331  eV     1   --> A_1  L_1       
     e( 12 - 13) =     10.31706  eV     2   --> E    L_3       
     e( 14 - 14) =     14.21510  eV     1   --> A_1  L_1       
     e( 15 - 16) =     16.44934  eV     2   --> E    L_3       
     e( 17 - 17) =     17.92499  eV     1   --> A_1  L_1       
     e( 18 - 19) =     18.48764  eV     2   --> E    L_3       
     e( 20 - 20) =     21.17374  eV     1   --> A_1  L_1       
     e( 21 - 21) =     31.12609  eV     1   --> A_1  L_1       
     e( 22 - 23) =     31.46761  eV     2   --> E    L_3       
     e( 24 - 25) =     32.96446  eV     2   --> E    L_3       
     e( 26 - 27) =     33.89616  eV     2   --> E    L_3       
     e( 28 - 28) =     33.99217  eV     1   --> A_1  L_1       
     e( 29 - 29) =     34.51609  eV     1   --> A_2  L_2       
     e( 30 - 31) =     35.87714  eV     2   --> E    L_3       
     e( 32 - 32) =     41.53034  eV     1   --> A_1  L_1       
     e( 33 - 33) =     44.90650  eV     1   --> A_1  L_1       
     e( 34 - 35) =     45.19377  eV     2   --> E    L_3       
     e( 36 - 36) =     45.86573  eV     1   -->   ?

 **************************************************************************

 **************************************************************************

                    xk=(   0.02500,   0.02500,   0.02500  )

     Band symmetry, C_3v (3m)   point group:

     e(  1 -  1) =     -8.27739  eV     1   --> A_1  L_1       
     e(  2 -  3) =     -8.27681  eV     2   --> E    L_3       
     e(  4 -  5) =     -8.19837  eV     2   --> E    L_3       
     e(  6 -  6) =     -6.12232  eV     1   --> A_1  L_1       
     e(  7 -  7) =      6.35861  eV     1   --> A_1  L_1       
     e(  8 -  9) =      6.60503  eV     2   --> E    L_3       
     e( 10 - 10) =      7.25420  eV     1   --> A_1  L_1       
     e( 11 - 11) =     10.26043  eV     1   --> A_1  L_1       
     e( 12 - 13) =     10.26842  eV     2   --> E    L_3       
     e( 14 - 14) =     14.07924  eV     1   --> A_1  L_1       
     e( 15 - 16) =     16.63544  eV     2   --> E    L_3       
     e( 17 - 17) =     18.05942  eV     1   --> A_1  L_1       
     e( 18 - 19) =     18.21714  eV     2   --> E    L_3       
     e( 20 - 20) =     20.95550  eV     1   --> A_1  L_1       
     e( 21 - 21) =     31.75440  eV     1   --> A_1  L_1       
     e( 22 - 23) =     31.94160  eV     2   --> E    L_3       
     e( 24 - 25) =     33.05039  eV     2   --> E    L_3       
     e( 26 - 26) =     33.44096  eV     1   --> A_1  L_1       
     e( 27 - 28) =     34.04131  eV     2   --> E    L_3       
     e( 29 - 29) =     34.49465  eV     1   --> A_2  L_2       
     e( 30 - 31) =     35.08991  eV     2   --> E    L_3       
     e( 32 - 32) =     41.46333  eV     1   --> A_1  L_1       
     e( 33 - 33) =     45.65636  eV     1   --> A_1  L_1       
     e( 34 - 35) =     45.78788  eV     2   --> E    L_3       
     e( 36 - 36) =     46.12530  eV     1   -->   ?

 **************************************************************************

 **************************************************************************

                    xk=(   0.00000,   0.00000,   0.00000  )

     point group T_d (-43m) 
     there are  5 classes
     the character table:

       E     8C3   3C2   6S4   6s_d 
A_1    1.00  1.00  1.00  1.00  1.00
A_2    1.00  1.00  1.00 -1.00 -1.00
E      2.00 -1.00  2.00  0.00  0.00
T_1    3.00  0.00 -1.00  1.00 -1.00
T_2    3.00  0.00 -1.00 -1.00  1.00

     the symmetry operations in each class and the name of the first element:

     E        1
                                                                 
     8C3      5    7    8    6   12    9   10   11
                                                                 
     3C2      2    3    4
                                                                 
     6S4     15   16   20   19   23   24
                                                                 
     6s_d    13   14   17   18   21   22
                                                                 

     Band symmetry, T_d (-43m)  point group:

     e(  1 -  3) =     -8.27697  eV     3   --> T_2  G_15 P_4  
     e(  4 -  5) =     -8.19837  eV     2   --> E    G_12 P_3  
     e(  6 -  6) =     -6.12974  eV     1   --> A_1  G_1  P_1  
     e(  7 -  9) =      6.61622  eV     3   --> T_2  G_15 P_4  
     e( 10 - 10) =      7.02828  eV     1   --> A_1  G_1  P_1  
     e( 11 - 13) =     10.25176  eV     3   --> T_2  G_15 P_4  
     e( 14 - 14) =     14.03250  eV     1   --> A_1  G_1  P_1  
     e( 15 - 16) =     16.71468  eV     2   --> E    G_12 P_3  
     e( 17 - 19) =     18.10992  eV     3   --> T_2  G_15 P_4  
     e( 20 - 20) =     20.87742  eV     1   --> A_1  G_1  P_1  
     e( 21 - 23) =     32.10386  eV     3   --> T_2  G_15 P_4  
     e( 24 - 26) =     33.11689  eV     3   --> T_2  G_15 P_4  
     e( 27 - 28) =     34.38744  eV     2   --> E    G_12 P_3  
     e( 29 - 31) =     34.48750  eV     3   --> T_1  G_25 P_5  
     e( 32 - 32) =     41.43863  eV     1   --> A_1  G_1  P_1  
     e( 33 - 35) =     46.04021  eV     3   --> T_2  G_15 P_4  
     e( 36 - 36) =     46.26576  eV     1   -->   ?

 **************************************************************************

 **************************************************************************

                    xk=(   0.03333,   0.00000,   0.00000  )

     point group C_2v (mm2) 
     there are  4 classes
     the character table:

       E     C2    s_v   s_v' 
A_1    1.00  1.00  1.00  1.00
A_2    1.00  1.00 -1.00 -1.00
B_1    1.00 -1.00  1.00 -1.00
B_2    1.00 -1.00 -1.00  1.00

     the symmetry operations in each class and the name of the first element:

     E        1
                                                                 
     C2       2
                                                                 
     s_v      3
                                                                 
     s_v'     4
                                                                 

     Band symmetry, C_2v (mm2)  point group:

     e(  1 -  1) =     -8.27736  eV     1   --> A_1  D_1  S_1  
     e(  2 -  3) =     -8.27684  eV     2   --> B_1  D_3  S_3  
     e(  2 -  3) =     -8.27684  eV     2   --> B_2  D_4  S_4  
     e(  4 -  5) =     -8.19837  eV     2   --> A_1  D_1  S_1  
     e(  4 -  5) =     -8.19837  eV     2   --> A_2  D_2  S_2  
     e(  6 -  6) =     -6.12534  eV     1   --> A_1  D_1  S_1  
     e(  7 -  7) =      6.45685  eV     1   --> A_1  D_1  S_1  
     e(  8 -  9) =      6.60062  eV     2   --> B_1  D_3  S_3  
     e(  8 -  9) =      6.60062  eV     2   --> B_2  D_4  S_4  
     e( 10 - 10) =      7.18708  eV     1   --> A_1  D_1  S_1  
     e( 11 - 11) =     10.23417  eV     1   --> A_1  D_1  S_1  
     e( 12 - 13) =     10.27286  eV     2   --> B_1  D_3  S_3  
     e( 12 - 13) =     10.27286  eV     2   --> B_2  D_4  S_4  
     e( 14 - 14) =     14.06027  eV     1   --> A_1  D_1  S_1  
     e( 15 - 15) =     16.61510  eV     1   --> A_1  D_1  S_1  
     e( 16 - 16) =     16.71934  eV     1   --> A_2  D_2  S_2  
     e( 17 - 18) =     18.11949  eV     2   --> B_1  D_3  S_3  
     e( 17 - 18) =     18.11949  eV     2   --> B_2  D_4  S_4  
     e( 19 - 19) =     18.18792  eV     1   --> A_1  D_1  S_1  
     e( 20 - 20) =     20.92462  eV     1   --> A_1  D_1  S_1  
     e( 21 - 22) =     31.92968  eV     2   --> B_1  D_3  S_3  
     e( 21 - 22) =     31.92968  eV     2   --> B_2  D_4  S_4  
     e( 23 - 23) =     32.03129  eV     1   --> A_1  D_1  S_1  
     e( 24 - 24) =     33.11318  eV     1   --> A_1  D_1  S_1  
     e( 25 - 26) =     33.18327  eV     2   --> B_1  D_3  S_3  
     e( 25 - 26) =     33.18327  eV     2   --> B_2  D_4  S_4  
     e( 27 - 27) =     33.85923  eV     1   --> A_2  D_2  S_2  
     e( 28 - 28) =     34.45220  eV     1   --> A_1  D_1  S_1  
     e( 29 - 30) =     34.60779  eV     2   --> B_1  D_3  S_3  
     e( 29 - 30) =     34.60779  eV     2   --> B_2  D_4  S_4  
     e( 31 - 31) =     35.02409  eV     1   --> A_2  D_2  S_2  
     e( 32 - 32) =     41.45339  eV     1   --> A_1  D_1  S_1  
     e( 33 - 34) =     45.83736  eV     2   --> B_1  D_3  S_3  
     e( 33 - 34) =     45.83736  eV     2   --> B_2  D_4  S_4  
     e( 35 - 35) =     45.87932  eV     1   --> A_1  D_1  S_1  
     e( 36 - 36) =     46.12255  eV     1   --> A_1  D_1  S_1  

 **************************************************************************

 **************************************************************************

                    xk=(   0.06667,   0.00000,   0.00000  )

     Band symmetry, C_2v (mm2)  point group:

     e(  1 -  1) =     -8.27848  eV     1   --> A_1  D_1  S_1  
     e(  2 -  3) =     -8.27630  eV     2   --> B_1  D_3  S_3  
     e(  2 -  3) =     -8.27630  eV     2   --> B_2  D_4  S_4  
     e(  4 -  4) =     -8.19850  eV     1   --> A_1  D_1  S_1  
     e(  5 -  5) =     -8.19818  eV     1   --> A_2  D_2  S_2  
     e(  6 -  6) =     -6.11215  eV     1   --> A_1  D_1  S_1  
     e(  7 -  7) =      6.18479  eV     1   --> A_1  D_1  S_1  
     e(  8 -  9) =      6.55498  eV     2   --> B_1  D_3  S_3  
     e(  8 -  9) =      6.55498  eV     2   --> B_2  D_4  S_4  
     e( 10 - 10) =      7.45715  eV     1   --> A_1  D_1  S_1  
     e( 11 - 11) =     10.18308  eV     1   --> A_1  D_1  S_1  
     e( 12 - 13) =     10.33500  eV     2   --> B_1  D_3  S_3  
     e( 12 - 13) =     10.33500  eV     2   --> B_2  D_4  S_4  
     e( 14 - 14) =     14.14180  eV     1   --> A_1  D_1  S_1  
     e( 15 - 15) =     16.37004  eV     1   --> A_1  D_1  S_1  
     e( 16 - 16) =     16.73335  eV     1   --> A_2  D_2  S_2  
     e( 17 - 18) =     18.14824  eV     2   --> B_1  D_3  S_3  
     e( 17 - 18) =     18.14824  eV     2   --> B_2  D_4  S_4  
     e( 19 - 19) =     18.36880  eV     1   --> A_1  D_1  S_1  
     e( 20 - 20) =     21.06600  eV     1   --> A_1  D_1  S_1  
     e( 21 - 22) =     31.53615  eV     2   --> B_1  D_3  S_3  
     e( 21 - 22) =     31.53615  eV     2   --> B_2  D_4  S_4  
     e( 23 - 23) =     31.83074  eV     1   --> A_1  D_1  S_1  
     e( 24 - 24) =     33.11014  eV     1   --> A_1  D_1  S_1  
     e( 25 - 26) =     33.28767  eV     2   --> B_1  D_3  S_3  
     e( 25 - 26) =     33.28767  eV     2   --> B_2  D_4  S_4  
     e( 27 - 27) =     33.29288  eV     1   --> A_2  D_2  S_2  
     e( 28 - 28) =     34.62121  eV     1   --> A_1  D_1  S_1  
     e( 29 - 30) =     34.93444  eV     2   --> B_1  D_3  S_3  
     e( 29 - 30) =     34.93444  eV     2   --> B_2  D_4  S_4  
     e( 31 - 31) =     35.61551  eV     1   --> A_2  D_2  S_2  
     e( 32 - 32) =     41.49532  eV     1   --> A_1  D_1  S_1  
     e( 33 - 33) =     45.35509  eV     1   --> A_1  D_1  S_1  
     e( 34 - 35) =     45.38494  eV     2   --> B_1  D_3  S_3  
     e( 34 - 35) =     45.38494  eV     2   --> B_2  D_4  S_4  
     e( 36 - 36) =     45.98412  eV     1   --> A_1  D_1  S_1  

 **************************************************************************

 **************************************************************************

                    xk=(   0.10000,   0.00000,   0.00000  )

     Band symmetry, C_2v (mm2)  point group:

     e(  1 -  1) =     -8.28030  eV     1   --> A_1  D_1  S_1  
     e(  2 -  3) =     -8.27564  eV     2   --> B_1  D_3  S_3  
     e(  2 -  3) =     -8.27564  eV     2   --> B_2  D_4  S_4  
     e(  4 -  4) =     -8.19873  eV     1   --> A_1  D_1  S_1  
     e(  5 -  5) =     -8.19799  eV     1   --> A_2  D_2  S_2  
     e(  6 -  6) =     -6.09023  eV     1   --> A_1  D_1  S_1  
     e(  7 -  7) =      5.89518  eV     1   --> A_1  D_1  S_1  
     e(  8 -  9) =      6.48244  eV     2   --> B_1  D_3  S_3  
     e(  8 -  9) =      6.48244  eV     2   --> B_2  D_4  S_4  
     e( 10 - 10) =      7.74243  eV     1   --> A_1  D_1  S_1  
     e( 11 - 11) =     10.10312  eV     1   --> A_1  D_1  S_1  
     e( 12 - 13) =     10.43500  eV     2   --> B_1  D_3  S_3  
     e( 12 - 13) =     10.43500  eV     2   --> B_2  D_4  S_4  
     e( 14 - 14) =     14.27219  eV     1   --> A_1  D_1  S_1  
     e( 15 - 15) =     16.05731  eV     1   --> A_1  D_1  S_1  
     e( 16 - 16) =     16.75669  eV     1   --> A_2  D_2  S_2  
     e( 17 - 18) =     18.19617  eV     2   --> B_1  D_3  S_3  
     e( 17 - 18) =     18.19617  eV     2   --> B_2  D_4  S_4  
     e( 19 - 19) =     18.57806  eV     1   --> A_1  D_1  S_1  
     e( 20 - 20) =     21.29937  eV     1   --> A_1  D_1  S_1  
     e( 21 - 22) =     31.05794  eV     2   --> B_1  D_3  S_3  
     e( 21 - 22) =     31.05794  eV     2   --> B_2  D_4  S_4  
     e( 23 - 23) =     31.53908  eV     1   --> A_1  D_1  S_1  
     e( 24 - 24) =     32.73472  eV     1   --> A_2  D_2  S_2  
     e( 25 - 25) =     33.11743  eV     1   --> A_1  D_1  S_1  
     e( 26 - 27) =     33.36872  eV     2   --> B_1  D_3  S_3  
     e( 26 - 27) =     33.36872  eV     2   --> B_2  D_4  S_4  
     e( 28 - 28) =     34.84813  eV     1   --> A_1  D_1  S_1  
     e( 29 - 30) =     35.39363  eV     2   --> B_1  D_3  S_3  
     e( 29 - 30) =     35.39363  eV     2   --> B_2  D_4  S_4  
     e( 31 - 31) =     36.21522  eV     1   --> A_2  D_2  S_2  
     e( 32 - 32) =     41.55622  eV     1   --> A_1  D_1  S_1  
     e( 33 - 33) =     44.71185  eV     1   --> A_1  D_1  S_1  
     e( 34 - 35) =     44.82209  eV     2   --> B_1  D_3  S_3  
     e( 34 - 35) =     44.82209  eV     2   --> B_2  D_4  S_4  
     e( 36 - 36) =     45.82048  eV     1   --> A_1  D_1  S_1  

 **************************************************************************

 **************************************************************************

                    xk=(   0.13333,   0.00000,   0.00000  )

     Band symmetry, C_2v (mm2)  point group:

     e(  1 -  1) =     -8.28294  eV     1   --> A_1  D_1  S_1  
     e(  2 -  3) =     -8.27484  eV     2   --> B_1  D_3  S_3  
     e(  2 -  3) =     -8.27484  eV     2   --> B_2  D_4  S_4  
     e(  4 -  4) =     -8.19929  eV     1   --> A_1  D_1  S_1  
     e(  5 -  5) =     -8.19773  eV     1   --> A_2  D_2  S_2  
     e(  6 -  6) =     -6.05964  eV     1   --> A_1  D_1  S_1  
     e(  7 -  7) =      5.60150  eV     1   --> A_1  D_1  S_1  
     e(  8 -  9) =      6.38736  eV     2   --> B_1  D_3  S_3  
     e(  8 -  9) =      6.38736  eV     2   --> B_2  D_4  S_4  
     e( 10 - 10) =      8.02774  eV     1   --> A_1  D_1  S_1  
     e( 11 - 11) =     10.00066  eV     1   --> A_1  D_1  S_1  
     e( 12 - 13) =     10.56842  eV     2   --> B_1  D_3  S_3  
     e( 12 - 13) =     10.56842  eV     2   --> B_2  D_4  S_4  
     e( 14 - 14) =     14.44408  eV     1   --> A_1  D_1  S_1  
     e( 15 - 15) =     15.72170  eV     1   --> A_1  D_1  S_1  
     e( 16 - 16) =     16.78935  eV     1   --> A_2  D_2  S_2  
     e( 17 - 18) =     18.26332  eV     2   --> B_1  D_3  S_3  
     e( 17 - 18) =     18.26332  eV     2   --> B_2  D_4  S_4  
     e( 19 - 19) =     18.77989  eV     1   --> A_1  D_1  S_1  
     e( 20 - 20) =     21.61822  eV     1   --> A_1  D_1  S_1  
     e( 21 - 22) =     30.54672  eV     2   --> B_1  D_3  S_3  
     e( 21 - 22) =     30.54672  eV     2   --> B_2  D_4  S_4  
     e( 23 - 23) =     31.18986  eV     1   --> A_1  D_1  S_1  
     e( 24 - 24) =     32.18547  eV     1   --> A_2  D_2  S_2  
     e( 25 - 25) =     33.13690  eV     1   --> A_1  D_1  S_1  
     e( 26 - 27) =     33.43387  eV     2   --> B_1  D_3  S_3  
     e( 26 - 27) =     33.43387  eV     2   --> B_2  D_4  S_4  
     e( 28 - 28) =     35.09760  eV     1   --> A_1  D_1  S_1  
     e( 29 - 30) =     35.92565  eV     2   --> B_1  D_3  S_3  
     e( 29 - 30) =     35.92565  eV     2   --> B_2  D_4  S_4  
     e( 31 - 31) =     36.82211  eV     1   --> A_2  D_2  S_2  
     e( 32 - 32) =     41.61724  eV     1   --> A_1  D_1  S_1  
     e( 33 - 33) =     44.04748  eV     1   --> A_1  D_1  S_1  
     e( 34 - 35) =     44.19589  eV     2   --> B_1  D_3  S_3  
     e( 34 - 35) =     44.19589  eV     2   --> B_2  D_4  S_4  
     e( 36 - 36) =     45.61709  eV     1   --> A_1  D_1  S_1  

 **************************************************************************

 **************************************************************************

                    xk=(   0.16667,   0.00000,   0.00000  )

     Band symmetry, C_2v (mm2)  point group:

     e(  1 -  1) =     -8.28628  eV     1   --> A_1  D_1  S_1  
     e(  2 -  3) =     -8.27380  eV     2   --> B_1  D_3  S_3  
     e(  2 -  3) =     -8.27380  eV     2   --> B_2  D_4  S_4  
     e(  4 -  4) =     -8.19993  eV     1   --> A_1  D_1  S_1  
     e(  5 -  5) =     -8.19739  eV     1   --> A_2  D_2  S_2  
     e(  6 -  6) =     -6.02048  eV     1   --> A_1  D_1  S_1  
     e(  7 -  7) =      5.30720  eV     1   --> A_1  D_1  S_1  
     e(  8 -  9) =      6.27452  eV     2   --> B_1  D_3  S_3  
     e(  8 -  9) =      6.27452  eV     2   --> B_2  D_4  S_4  
     e( 10 - 10) =      8.30674  eV     1   --> A_1  D_1  S_1  
     e( 11 - 11) =      9.88290  eV     1   --> A_1  D_1  S_1  
     e( 12 - 13) =     10.73041  eV     2   --> B_1  D_3  S_3  
     e( 12 - 13) =     10.73041  eV     2   --> B_2  D_4  S_4  
     e( 14 - 14) =     14.64564  eV     1   --> A_1  D_1  S_1  
     e( 15 - 15) =     15.39076  eV     1   --> A_1  D_1  S_1  
     e( 16 - 16) =     16.83134  eV     1   --> A_2  D_2  S_2  
     e( 17 - 18) =     18.34975  eV     2   --> B_1  D_3  S_3  
     e( 17 - 18) =     18.34975  eV     2   --> B_2  D_4  S_4  
     e( 19 - 19) =     18.96513  eV     1   --> A_1  D_1  S_1  
     e( 20 - 20) =     22.01148  eV     1   --> A_1  D_1  S_1  
     e( 21 - 22) =     30.02263  eV     2   --> B_1  D_3  S_3  
     e( 21 - 22) =     30.02263  eV     2   --> B_2  D_4  S_4  
     e( 23 - 23) =     30.80549  eV     1   --> A_1  D_1  S_1  
     e( 24 - 24) =     31.64543  eV     1   --> A_2  D_2  S_2  
     e( 25 - 25) =     33.16756  eV     1   --> A_1  D_1  S_1  
     e( 26 - 27) =     33.49484  eV     2   --> B_1  D_3  S_3  
     e( 26 - 27) =     33.49484  eV     2   --> B_2  D_4  S_4  
     e( 28 - 28) =     35.34892  eV     1   --> A_1  D_1  S_1  
     e( 29 - 30) =     36.49769  eV     2   --> B_1  D_3  S_3  
     e( 29 - 30) =     36.49769  eV     2   --> B_2  D_4  S_4  
     e( 31 - 31) =     37.43533  eV     1   --> A_2  D_2  S_2  
     e( 32 - 32) =     41.63573  eV     1   --> A_1  D_1  S_1  
     e( 33 - 33) =     43.41567  eV     1   --> A_1  D_1  S_1  
     e( 34 - 35) =     43.52930  eV     2   --> B_1  D_3  S_3  
     e( 34 - 35) =     43.52930  eV     2   --> B_2  D_4  S_4  
     e( 36 - 36) =     45.35527  eV     1   --> A_1  D_1  S_1  

 **************************************************************************

 **************************************************************************

                    xk=(   0.20000,   0.00000,   0.00000  )

     Band symmetry, C_2v (mm2)  point group:

     e(  1 -  1) =     -8.29012  eV     1   --> A_1  D_1  S_1  
     e(  2 -  3) =     -8.27245  eV     2   --> B_1  D_3  S_3  
     e(  2 -  3) =     -8.27245  eV     2   --> B_2  D_4  S_4  
     e(  4 -  4) =     -8.20051  eV     1   --> A_1  D_1  S_1  
     e(  5 -  5) =     -8.19698  eV     1   --> A_2  D_2  S_2  
     e(  6 -  6) =     -5.97288  eV     1   --> A_1  D_1  S_1  
     e(  7 -  7) =      5.01365  eV     1   --> A_1  D_1  S_1  
     e(  8 -  9) =      6.14848  eV     2   --> B_1  D_3  S_3  
     e(  8 -  9) =      6.14848  eV     2   --> B_2  D_4  S_4  
     e( 10 - 10) =      8.57314  eV     1   --> A_1  D_1  S_1  
     e( 11 - 11) =      9.75775  eV     1   --> A_1  D_1  S_1  
     e( 12 - 13) =     10.91633  eV     2   --> B_1  D_3  S_3  
     e( 12 - 13) =     10.91633  eV     2   --> B_2  D_4  S_4  
     e( 14 - 14) =     14.82012  eV     1   --> A_1  D_1  S_1  
     e( 15 - 15) =     15.12855  eV     1   --> A_1  D_1  S_1  
     e( 16 - 16) =     16.88264  eV     1   --> A_2  D_2  S_2  
     e( 17 - 18) =     18.45553  eV     2   --> B_1  D_3  S_3  
     e( 17 - 18) =     18.45553  eV     2   --> B_2  D_4  S_4  
     e( 19 - 19) =     19.13632  eV     1   --> A_1  D_1  S_1  
     e( 20 - 20) =     22.46612  eV     1   --> A_1  D_1  S_1  
     e( 21 - 22) =     29.49483  eV     2   --> B_1  D_3  S_3  
     e( 21 - 22) =     29.49483  eV     2   --> B_2  D_4  S_4  
     e( 23 - 23) =     30.39974  eV     1   --> A_1  D_1  S_1  
     e( 24 - 24) =     31.11479  eV     1   --> A_2  D_2  S_2  
     e( 25 - 25) =     33.20827  eV     1   --> A_1  D_1  S_1  
     e( 26 - 27) =     33.55801  eV     2   --> B_1  D_3  S_3  
     e( 26 - 27) =     33.55801  eV     2   --> B_2  D_4  S_4  
     e( 28 - 28) =     35.59009  eV     1   --> A_1  D_1  S_1  
     e( 29 - 30) =     37.09220  eV     2   --> B_1  D_3  S_3  
     e( 29 - 30) =     37.09220  eV     2   --> B_2  D_4  S_4  
     e( 31 - 31) =     38.05378  eV     1   --> A_2  D_2  S_2  
     e( 32 - 32) =     41.51993  eV     1   --> A_1  D_1  S_1  
     e( 33 - 34) =     42.83876  eV     2   --> B_1  D_3  S_3  
     e( 33 - 34) =     42.83876  eV     2   --> B_2  D_4  S_4  
     e( 35 - 35) =     42.88902  eV     1   --> A_1  D_1  S_1  
     e( 36 - 36) =     44.90619  eV     1   --> A_1  D_1  S_1  

 **************************************************************************

 **************************************************************************

                    xk=(   0.23333,   0.00000,   0.00000  )

     Band symmetry, C_2v (mm2)  point group:

     e(  1 -  1) =     -8.29445  eV     1   --> A_1  D_1  S_1  
     e(  2 -  3) =     -8.27078  eV     2   --> B_1  D_3  S_3  
     e(  2 -  3) =     -8.27078  eV     2   --> B_2  D_4  S_4  
     e(  4 -  4) =     -8.20106  eV     1   --> A_1  D_1  S_1  
     e(  5 -  5) =     -8.19650  eV     1   --> A_2  D_2  S_2  
     e(  6 -  6) =     -5.91700  eV     1   --> A_1  D_1  S_1  
     e(  7 -  7) =      4.72153  eV     1   --> A_1  D_1  S_1  
     e(  8 -  9) =      6.01328  eV     2   --> B_1  D_3  S_3  
     e(  8 -  9) =      6.01328  eV     2   --> B_2  D_4  S_4  
     e( 10 - 10) =      8.81645  eV     1   --> A_1  D_1  S_1  
     e( 11 - 11) =      9.63606  eV     1   --> A_1  D_1  S_1  
     e( 12 - 13) =     11.12203  eV     2   --> B_1  D_3  S_3  
     e( 12 - 13) =     11.12203  eV     2   --> B_2  D_4  S_4  
     e( 14 - 14) =     14.67428  eV     1   --> A_1  D_1  S_1  
     e( 15 - 15) =     15.23294  eV     1   --> A_1  D_1  S_1  
     e( 16 - 16) =     16.94324  eV     1   --> A_2  D_2  S_2  
     e( 17 - 18) =     18.58072  eV     2   --> B_1  D_3  S_3  
     e( 17 - 18) =     18.58072  eV     2   --> B_2  D_4  S_4  
     e( 19 - 19) =     19.29958  eV     1   --> A_1  D_1  S_1  
     e( 20 - 20) =     22.96996  eV     1   --> A_1  D_1  S_1  
     e( 21 - 22) =     28.96804  eV     2   --> B_1  D_3  S_3  
     e( 21 - 22) =     28.96804  eV     2   --> B_2  D_4  S_4  
     e( 23 - 23) =     29.98124  eV     1   --> A_1  D_1  S_1  
     e( 24 - 24) =     30.59370  eV     1   --> A_2  D_2  S_2  
     e( 25 - 25) =     33.25817  eV     1   --> A_1  D_1  S_1  
     e( 26 - 27) =     33.62649  eV     2   --> B_1  D_3  S_3  
     e( 26 - 27) =     33.62649  eV     2   --> B_2  D_4  S_4  
     e( 28 - 28) =     35.81352  eV     1   --> A_1  D_1  S_1  
     e( 29 - 30) =     37.69692  eV     2   --> B_1  D_3  S_3  
     e( 29 - 30) =     37.69692  eV     2   --> B_2  D_4  S_4  
     e( 31 - 31) =     38.67601  eV     1   --> A_2  D_2  S_2  
     e( 32 - 32) =     41.16613  eV     1   --> A_1  D_1  S_1  
     e( 33 - 34) =     42.13899  eV     2   --> B_1  D_3  S_3  
     e( 33 - 34) =     42.13899  eV     2   --> B_2  D_4  S_4  
     e( 35 - 35) =     42.51692  eV     1   --> A_1  D_1  S_1  
     e( 36 - 36) =     44.36306  eV     1   --> A_1  D_1  S_1  

 **************************************************************************

 **************************************************************************

                    xk=(   0.26667,   0.00000,   0.00000  )

     Band symmetry, C_2v (mm2)  point group:

     e(  1 -  1) =     -8.29919  eV     1   --> A_1  D_1  S_1  
     e(  2 -  3) =     -8.26907  eV     2   --> B_1  D_3  S_3  
     e(  2 -  3) =     -8.26907  eV     2   --> B_2  D_4  S_4  
     e(  4 -  4) =     -8.20176  eV     1   --> A_1  D_1  S_1  
     e(  5 -  5) =     -8.19617  eV     1   --> A_2  D_2  S_2  
     e(  6 -  6) =     -5.85301  eV     1   --> A_1  D_1  S_1  
     e(  7 -  7) =      4.43126  eV     1   --> A_1  D_1  S_1  
     e(  8 -  9) =      5.87229  eV     2   --> B_1  D_3  S_3  
     e(  8 -  9) =      5.87229  eV     2   --> B_2  D_4  S_4  
     e( 10 - 10) =      9.01095  eV     1   --> A_1  D_1  S_1  
     e( 11 - 11) =      9.54189  eV     1   --> A_1  D_1  S_1  
     e( 12 - 13) =     11.34398  eV     2   --> B_1  D_3  S_3  
     e( 12 - 13) =     11.34398  eV     2   --> B_2  D_4  S_4  
     e( 14 - 14) =     14.41026  eV     1   --> A_1  D_1  S_1  
     e( 15 - 15) =     15.50625  eV     1   --> A_1  D_1  S_1  
     e( 16 - 16) =     17.01309  eV     1   --> A_2  D_2  S_2  
     e( 17 - 18) =     18.72537  eV     2   --> B_1  D_3  S_3  
     e( 17 - 18) =     18.72537  eV     2   --> B_2  D_4  S_4  
     e( 19 - 19) =     19.46097  eV     1   --> A_1  D_1  S_1  
     e( 20 - 20) =     23.51307  eV     1   --> A_1  D_1  S_1  
     e( 21 - 22) =     28.44491  eV     2   --> B_1  D_3  S_3  
     e( 21 - 22) =     28.44491  eV     2   --> B_2  D_4  S_4  
     e( 23 - 23) =     29.55577  eV     1   --> A_1  D_1  S_1  
     e( 24 - 24) =     30.08225  eV     1   --> A_2  D_2  S_2  
     e( 25 - 25) =     33.31671  eV     1   --> A_1  D_1  S_1  
     e( 26 - 27) =     33.70180  eV     2   --> B_1  D_3  S_3  
     e( 26 - 27) =     33.70180  eV     2   --> B_2  D_4  S_4  
     e( 28 - 28) =     36.01299  eV     1   --> A_1  D_1  S_1  
     e( 29 - 30) =     38.29597  eV     2   --> B_1  D_3  S_3  
     e( 29 - 30) =     38.29597  eV     2   --> B_2  D_4  S_4  
     e( 31 - 31) =     39.29974  eV     1   --> A_2  D_2  S_2  
     e( 32 - 32) =     40.62194  eV     1   --> A_1  D_1  S_1  
     e( 33 - 34) =     41.44853  eV     2   --> B_1  D_3  S_3  
     e( 33 - 34) =     41.44853  eV     2   --> B_2  D_4  S_4  
     e( 35 - 35) =     42.16562  eV     1   --> A_1  D_1  S_1  
     e( 36 - 36) =     43.93821  eV     1   --> A_1  D_1  S_1  

 **************************************************************************

 **************************************************************************

                    xk=(   0.30000,   0.00000,   0.00000  )

     Band symmetry, C_2v (mm2)  point group:

     e(  1 -  1) =     -8.30425  eV     1   --> A_1  D_1  S_1  
     e(  2 -  3) =     -8.26713  eV     2   --> B_1  D_3  S_3  
     e(  2 -  3) =     -8.26713  eV     2   --> B_2  D_4  S_4  
     e(  4 -  4) =     -8.20266  eV     1   --> A_1  D_1  S_1  
     e(  5 -  5) =     -8.19559  eV     1   --> A_2  D_2  S_2  
     e(  6 -  6) =     -5.78110  eV     1   --> A_1  D_1  S_1  
     e(  7 -  7) =      4.14311  eV     1   --> A_1  D_1  S_1  
     e(  8 -  9) =      5.72828  eV     2   --> B_1  D_3  S_3  
     e(  8 -  9) =      5.72828  eV     2   --> B_2  D_4  S_4  
     e( 10 - 10) =      9.09201  eV     1   --> A_1  D_1  S_1  
     e( 11 - 11) =      9.53603  eV     1   --> A_1  D_1  S_1  
     e( 12 - 13) =     11.57932  eV     2   --> B_1  D_3  S_3  
     e( 12 - 13) =     11.57932  eV     2   --> B_2  D_4  S_4  
     e( 14 - 14) =     14.16967  eV     1   --> A_1  D_1  S_1  
     e( 15 - 15) =     15.81235  eV     1   --> A_1  D_1  S_1  
     e( 16 - 16) =     17.09222  eV     1   --> A_2  D_2  S_2  
     e( 17 - 18) =     18.88956  eV     2   --> B_1  D_3  S_3  
     e( 17 - 18) =     18.88956  eV     2   --> B_2  D_4  S_4  
     e( 19 - 19) =     19.62549  eV     1   --> A_1  D_1  S_1  
     e( 20 - 20) =     24.08792  eV     1   --> A_1  D_1  S_1  
     e( 21 - 22) =     27.92713  eV     2   --> B_1  D_3  S_3  
     e( 21 - 22) =     27.92713  eV     2   --> B_2  D_4  S_4  
     e( 23 - 23) =     29.12750  eV     1   --> A_1  D_1  S_1  
     e( 24 - 24) =     29.58065  eV     1   --> A_2  D_2  S_2  
     e( 25 - 25) =     33.38349  eV     1   --> A_1  D_1  S_1  
     e( 26 - 27) =     33.78469  eV     2   --> B_1  D_3  S_3  
     e( 26 - 27) =     33.78469  eV     2   --> B_2  D_4  S_4  
     e( 28 - 28) =     36.18094  eV     1   --> A_1  D_1  S_1  
     e( 29 - 30) =     38.84571  eV     2   --> B_1  D_3  S_3  
     e( 29 - 30) =     38.84571  eV     2   --> B_2  D_4  S_4  
     e( 31 - 31) =     39.92177  eV     1   --> A_2  D_2  S_2  
     e( 32 - 32) =     40.00528  eV     1   --> A_1  D_1  S_1  
     e( 33 - 34) =     40.81373  eV     2   --> B_1  D_3  S_3  
     e( 33 - 34) =     40.81373  eV     2   --> B_2  D_4  S_4  
     e( 35 - 35) =     41.68270  eV     1   --> A_1  D_1  S_1  
     e( 36 - 36) =     43.66158  eV     1   --> A_1  D_1  S_1  

 **************************************************************************

 **************************************************************************

                    xk=(   0.33333,   0.00000,   0.00000  )

     Band symmetry, C_2v (mm2)  point group:

     e(  1 -  1) =     -8.30952  eV     1   --> A_1  D_1  S_1  
     e(  2 -  3) =     -8.26490  eV     2   --> B_1  D_3  S_3  
     e(  2 -  3) =     -8.26490  eV     2   --> B_2  D_4  S_4  
     e(  4 -  4) =     -8.20377  eV     1   --> A_1  D_1  S_1  
     e(  5 -  5) =     -8.19494  eV     1   --> A_2  D_2  S_2  
     e(  6 -  6) =     -5.70149  eV     1   --> A_1  D_1  S_1  
     e(  7 -  7) =      3.85734  eV     1   --> A_1  D_1  S_1  
     e(  8 -  9) =      5.58350  eV     2   --> B_1  D_3  S_3  
     e(  8 -  9) =      5.58350  eV     2   --> B_2  D_4  S_4  
     e( 10 - 10) =      9.03866  eV     1   --> A_1  D_1  S_1  
     e( 11 - 11) =      9.63349  eV     1   --> A_1  D_1  S_1  
     e( 12 - 13) =     11.82567  eV     2   --> B_1  D_3  S_3  
     e( 12 - 13) =     11.82567  eV     2   --> B_2  D_4  S_4  
     e( 14 - 14) =     13.97308  eV     1   --> A_1  D_1  S_1  
     e( 15 - 15) =     16.13733  eV     1   --> A_1  D_1  S_1  
     e( 16 - 16) =     17.18059  eV     1   --> A_2  D_2  S_2  
     e( 17 - 18) =     19.07331  eV     2   --> B_1  D_3  S_3  
     e( 17 - 18) =     19.07331  eV     2   --> B_2  D_4  S_4  
     e( 19 - 19) =     19.79697  eV     1   --> A_1  D_1  S_1  
     e( 20 - 20) =     24.68893  eV     1   --> A_1  D_1  S_1  
     e( 21 - 22) =     27.41583  eV     2   --> B_1  D_3  S_3  
     e( 21 - 22) =     27.41583  eV     2   --> B_2  D_4  S_4  
     e( 23 - 23) =     28.69968  eV     1   --> A_1  D_1  S_1  
     e( 24 - 24) =     29.08900  eV     1   --> A_2  D_2  S_2  
     e( 25 - 25) =     33.45819  eV     1   --> A_1  D_1  S_1  
     e( 26 - 27) =     33.87551  eV     2   --> B_1  D_3  S_3  
     e( 26 - 27) =     33.87551  eV     2   --> B_2  D_4  S_4  
     e( 28 - 28) =     36.30421  eV     1   --> A_1  D_1  S_1  
     e( 29 - 30) =     39.14443  eV     2   --> B_1  D_3  S_3  
     e( 29 - 30) =     39.14443  eV     2   --> B_2  D_4  S_4  
     e( 31 - 31) =     39.38552  eV     1   --> A_1  D_1  S_1  
     e( 32 - 33) =     40.43794  eV     2   --> B_1  D_3  S_3  
     e( 32 - 33) =     40.43794  eV     2   --> B_2  D_4  S_4  
     e( 34 - 34) =     40.53671  eV     1   --> A_2  D_2  S_2  
     e( 35 - 35) =     41.07853  eV     1   --> A_1  D_1  S_1  
     e( 36 - 36) =     43.44816  eV     1   --> A_1  D_1  S_1  

 **************************************************************************

 **************************************************************************

                    xk=(   0.36667,   0.00000,   0.00000  )

     Band symmetry, C_2v (mm2)  point group:

     e(  1 -  1) =     -8.31498  eV     1   --> A_1  D_1  S_1  
     e(  2 -  3) =     -8.26267  eV     2   --> B_1  D_3  S_3  
     e(  2 -  3) =     -8.26267  eV     2   --> B_2  D_4  S_4  
     e(  4 -  4) =     -8.20487  eV     1   --> A_1  D_1  S_1  
     e(  5 -  5) =     -8.19428  eV     1   --> A_2  D_2  S_2  
     e(  6 -  6) =     -5.61445  eV     1   --> A_1  D_1  S_1  
     e(  7 -  7) =      3.57416  eV     1   --> A_1  D_1  S_1  
     e(  8 -  9) =      5.43974  eV     2   --> B_1  D_3  S_3  
     e(  8 -  9) =      5.43974  eV     2   --> B_2  D_4  S_4  
     e( 10 - 10) =      8.93110  eV     1   --> A_1  D_1  S_1  
     e( 11 - 11) =      9.74689  eV     1   --> A_1  D_1  S_1  
     e( 12 - 13) =     12.08109  eV     2   --> B_1  D_3  S_3  
     e( 12 - 13) =     12.08109  eV     2   --> B_2  D_4  S_4  
     e( 14 - 14) =     13.83257  eV     1   --> A_1  D_1  S_1  
     e( 15 - 15) =     16.47631  eV     1   --> A_1  D_1  S_1  
     e( 16 - 16) =     17.27814  eV     1   --> A_2  D_2  S_2  
     e( 17 - 18) =     19.27663  eV     2   --> B_1  D_3  S_3  
     e( 17 - 18) =     19.27663  eV     2   --> B_2  D_4  S_4  
     e( 19 - 19) =     19.97827  eV     1   --> A_1  D_1  S_1  
     e( 20 - 20) =     25.31190  eV     1   --> A_1  D_1  S_1  
     e( 21 - 22) =     26.91172  eV     2   --> B_1  D_3  S_3  
     e( 21 - 22) =     26.91172  eV     2   --> B_2  D_4  S_4  
     e( 23 - 23) =     28.27506  eV     1   --> A_1  D_1  S_1  
     e( 24 - 24) =     28.60739  eV     1   --> A_2  D_2  S_2  
     e( 25 - 25) =     33.54044  eV     1   --> A_1  D_1  S_1  
     e( 26 - 27) =     33.97430  eV     2   --> B_1  D_3  S_3  
     e( 26 - 27) =     33.97430  eV     2   --> B_2  D_4  S_4  
     e( 28 - 28) =     36.35639  eV     1   --> A_1  D_1  S_1  
     e( 29 - 29) =     38.81071  eV     1   --> A_1  D_1  S_1  
     e( 30 - 31) =     38.83354  eV     2   --> B_1  D_3  S_3  
     e( 30 - 31) =     38.83354  eV     2   --> B_2  D_4  S_4  
     e( 32 - 32) =     40.41341  eV     1   --> A_1  D_1  S_1  
     e( 33 - 34) =     40.68013  eV     2   --> B_1  D_3  S_3  
     e( 33 - 34) =     40.68013  eV     2   --> B_2  D_4  S_4  
     e( 35 - 35) =     41.13554  eV     1   --> A_2  D_2  S_2  
     e( 36 - 36) =     43.23063  eV     1   --> A_1  D_1  S_1  

 **************************************************************************

 **************************************************************************

                    xk=(   0.40000,   0.00000,   0.00000  )

     Band symmetry, C_2v (mm2)  point group:

     e(  1 -  1) =     -8.32050  eV     1   --> A_1  D_1  S_1  
     e(  2 -  3) =     -8.26020  eV     2   --> B_1  D_3  S_3  
     e(  2 -  3) =     -8.26020  eV     2   --> B_2  D_4  S_4  
     e(  4 -  4) =     -8.20613  eV     1   --> A_1  D_1  S_1  
     e(  5 -  5) =     -8.19338  eV     1   --> A_2  D_2  S_2  
     e(  6 -  6) =     -5.52025  eV     1   --> A_1  D_1  S_1  
     e(  7 -  7) =      3.29379  eV     1   --> A_1  D_1  S_1  
     e(  8 -  9) =      5.29844  eV     2   --> B_1  D_3  S_3  
     e(  8 -  9) =      5.29844  eV     2   --> B_2  D_4  S_4  
     e( 10 - 10) =      8.81090  eV     1   --> A_1  D_1  S_1  
     e( 11 - 11) =      9.82805  eV     1   --> A_1  D_1  S_1  
     e( 12 - 13) =     12.34401  eV     2   --> B_1  D_3  S_3  
     e( 12 - 13) =     12.34401  eV     2   --> B_2  D_4  S_4  
     e( 14 - 14) =     13.75742  eV     1   --> A_1  D_1  S_1  
     e( 15 - 15) =     16.82602  eV     1   --> A_1  D_1  S_1  
     e( 16 - 16) =     17.38489  eV     1   --> A_2  D_2  S_2  
     e( 17 - 18) =     19.49951  eV     2   --> B_1  D_3  S_3  
     e( 17 - 18) =     19.49951  eV     2   --> B_2  D_4  S_4  
     e( 19 - 19) =     20.17158  eV     1   --> A_1  D_1  S_1  
     e( 20 - 20) =     25.95356  eV     1   --> A_1  D_1  S_1  
     e( 21 - 22) =     26.41545  eV     2   --> B_1  D_3  S_3  
     e( 21 - 22) =     26.41545  eV     2   --> B_2  D_4  S_4  
     e( 23 - 23) =     27.85611  eV     1   --> A_1  D_1  S_1  
     e( 24 - 24) =     28.13599  eV     1   --> A_2  D_2  S_2  
     e( 25 - 25) =     33.62982  eV     1   --> A_1  D_1  S_1  
     e( 26 - 27) =     34.08097  eV     2   --> B_1  D_3  S_3  
     e( 26 - 27) =     34.08097  eV     2   --> B_2  D_4  S_4  
     e( 28 - 28) =     36.28738  eV     1   --> A_1  D_1  S_1  
     e( 29 - 30) =     38.21825  eV     2   --> B_1  D_3  S_3  
     e( 29 - 30) =     38.21825  eV     2   --> B_2  D_4  S_4  
     e( 31 - 31) =     38.33746  eV     1   --> A_1  D_1  S_1  
     e( 32 - 32) =     39.72798  eV     1   --> A_1  D_1  S_1  
     e( 33 - 34) =     41.23408  eV     2   --> B_1  D_3  S_3  
     e( 33 - 34) =     41.23408  eV     2   --> B_2  D_4  S_4  
     e( 35 - 35) =     41.70282  eV     1   --> A_2  D_2  S_2  
     e( 36 - 36) =     42.99473  eV     1   --> A_1  D_1  S_1  

 **************************************************************************

 **************************************************************************

                    xk=(   0.43333,   0.00000,   0.00000  )

     Band symmetry, C_2v (mm2)  point group:

     e(  1 -  1) =     -8.32607  eV     1   --> A_1  D_1  S_1  
     e(  2 -  3) =     -8.25769  eV     2   --> B_1  D_3  S_3  
     e(  2 -  3) =     -8.25769  eV     2   --> B_2  D_4  S_4  
     e(  4 -  4) =     -8.20731  eV     1   --> A_1  D_1  S_1  
     e(  5 -  5) =     -8.19266  eV     1   --> A_2  D_2  S_2  
     e(  6 -  6) =     -5.41922  eV     1   --> A_1  D_1  S_1  
     e(  7 -  7) =      3.01651  eV     1   --> A_1  D_1  S_1  
     e(  8 -  9) =      5.16080  eV     2   --> B_1  D_3  S_3  
     e(  8 -  9) =      5.16080  eV     2   --> B_2  D_4  S_4  
     e( 10 - 10) =      8.69033  eV     1   --> A_1  D_1  S_1  
     e( 11 - 11) =      9.86139  eV     1   --> A_1  D_1  S_1  
     e( 12 - 13) =     12.61313  eV     2   --> B_1  D_3  S_3  
     e( 12 - 13) =     12.61313  eV     2   --> B_2  D_4  S_4  
     e( 14 - 14) =     13.75261  eV     1   --> A_1  D_1  S_1  
     e( 15 - 15) =     17.18357  eV     1   --> A_1  D_1  S_1  
     e( 16 - 16) =     17.50066  eV     1   --> A_2  D_2  S_2  
     e( 17 - 18) =     19.74190  eV     2   --> B_1  D_3  S_3  
     e( 17 - 18) =     19.74190  eV     2   --> B_2  D_4  S_4  
     e( 19 - 19) =     20.37868  eV     1   --> A_1  D_1  S_1  
     e( 20 - 21) =     25.92750  eV     2   --> B_1  D_3  S_3  
     e( 20 - 21) =     25.92750  eV     2   --> B_2  D_4  S_4  
     e( 22 - 22) =     26.61115  eV     1   --> A_1  D_1  S_1  
     e( 23 - 23) =     27.44537  eV     1   --> A_1  D_1  S_1  
     e( 24 - 24) =     27.67487  eV     1   --> A_2  D_2  S_2  
     e( 25 - 25) =     33.72566  eV     1   --> A_1  D_1  S_1  
     e( 26 - 27) =     34.19514  eV     2   --> B_1  D_3  S_3  
     e( 26 - 27) =     34.19514  eV     2   --> B_2  D_4  S_4  
     e( 28 - 28) =     36.03916  eV     1   --> A_1  D_1  S_1  
     e( 29 - 30) =     37.53719  eV     2   --> B_1  D_3  S_3  
     e( 29 - 30) =     37.53719  eV     2   --> B_2  D_4  S_4  
     e( 31 - 31) =     38.01608  eV     1   --> A_1  D_1  S_1  
     e( 32 - 32) =     39.05461  eV     1   --> A_1  D_1  S_1  
     e( 33 - 34) =     41.85487  eV     2   --> B_1  D_3  S_3  
     e( 33 - 34) =     41.85487  eV     2   --> B_2  D_4  S_4  
     e( 35 - 35) =     42.21226  eV     1   --> A_2  D_2  S_2  
     e( 36 - 36) =     42.74565  eV     1   --> A_1  D_1  S_1  

 **************************************************************************

 **************************************************************************

                    xk=(   0.46667,   0.00000,   0.00000  )

     Band symmetry, C_2v (mm2)  point group:

     e(  1 -  1) =     -8.33161  eV     1   --> A_1  D_1  S_1  
     e(  2 -  3) =     -8.25518  eV     2   --> B_1  D_3  S_3  
     e(  2 -  3) =     -8.25518  eV     2   --> B_2  D_4  S_4  
     e(  4 -  4) =     -8.20861  eV     1   --> A_1  D_1  S_1  
     e(  5 -  5) =     -8.19192  eV     1   --> A_2  D_2  S_2  
     e(  6 -  6) =     -5.31172  eV     1   --> A_1  D_1  S_1  
     e(  7 -  7) =      2.74262  eV     1   --> A_1  D_1  S_1  
     e(  8 -  9) =      5.02775  eV     2   --> B_1  D_3  S_3  
     e(  8 -  9) =      5.02775  eV     2   --> B_2  D_4  S_4  
     e( 10 - 10) =      8.57395  eV     1   --> A_1  D_1  S_1  
     e( 11 - 11) =      9.84447  eV     1   --> A_1  D_1  S_1  
     e( 12 - 13) =     12.88735  eV     2   --> B_1  D_3  S_3  
     e( 12 - 13) =     12.88735  eV     2   --> B_2  D_4  S_4  
     e( 14 - 14) =     13.81712  eV     1   --> A_1  D_1  S_1  
     e( 15 - 15) =     17.54598  eV     1   --> A_1  D_1  S_1  
     e( 16 - 16) =     17.62542  eV     1   --> A_2  D_2  S_2  
     e( 17 - 18) =     20.00370  eV     2   --> B_1  D_3  S_3  
     e( 17 - 18) =     20.00370  eV     2   --> B_2  D_4  S_4  
     e( 19 - 19) =     20.60101  eV     1   --> A_1  D_1  S_1  
     e( 20 - 21) =     25.44828  eV     2   --> B_1  D_3  S_3  
     e( 20 - 21) =     25.44828  eV     2   --> B_2  D_4  S_4  
     e( 22 - 22) =     27.04462  eV     1   --> A_1  D_1  S_1  
     e( 23 - 23) =     27.22419  eV     1   --> A_2  D_2  S_2  
     e( 24 - 24) =     27.28297  eV     1   --> A_1  D_1  S_1  
     e( 25 - 25) =     33.82659  eV     1   --> A_1  D_1  S_1  
     e( 26 - 27) =     34.31607  eV     2   --> B_1  D_3  S_3  
     e( 26 - 27) =     34.31607  eV     2   --> B_2  D_4  S_4  
     e( 28 - 28) =     35.61324  eV     1   --> A_1  D_1  S_1  
     e( 29 - 30) =     36.84117  eV     2   --> B_1  D_3  S_3  
     e( 29 - 30) =     36.84117  eV     2   --> B_2  D_4  S_4  
     e( 31 - 31) =     37.78235  eV     1   --> A_1  D_1  S_1  
     e( 32 - 32) =     38.47001  eV     1   --> A_1  D_1  S_1  
     e( 33 - 34) =     42.45793  eV     2   --> B_1  D_3  S_3  
     e( 33 - 34) =     42.45793  eV     2   --> B_2  D_4  S_4  
     e( 35 - 35) =     42.49061  eV     1   --> A_1  D_1  S_1  
     e( 36 - 36) =     42.62609  eV     1   --> A_2  D_2  S_2  

 **************************************************************************

 **************************************************************************

                    xk=(   0.50000,   0.00000,   0.00000  )

     Band symmetry, C_2v (mm2)  point group:

     e(  1 -  1) =     -8.33706  eV     1   --> A_1  D_1  S_1  
     e(  2 -  3) =     -8.25273  eV     2   --> B_1  D_3  S_3  
     e(  2 -  3) =     -8.25273  eV     2   --> B_2  D_4  S_4  
     e(  4 -  4) =     -8.21012  eV     1   --> A_1  D_1  S_1  
     e(  5 -  5) =     -8.19118  eV     1   --> A_2  D_2  S_2  
     e(  6 -  6) =     -5.19817  eV     1   --> A_1  D_1  S_1  
     e(  7 -  7) =      2.47250  eV     1   --> A_1  D_1  S_1  
     e(  8 -  9) =      4.90010  eV     2   --> B_1  D_3  S_3  
     e(  8 -  9) =      4.90010  eV     2   --> B_2  D_4  S_4  
     e( 10 - 10) =      8.46397  eV     1   --> A_1  D_1  S_1  
     e( 11 - 11) =      9.78263  eV     1   --> A_1  D_1  S_1  
     e( 12 - 13) =     13.16574  eV     2   --> B_1  D_3  S_3  
     e( 12 - 13) =     13.16574  eV     2   --> B_2  D_4  S_4  
     e( 14 - 14) =     13.94405  eV     1   --> A_1  D_1  S_1  
     e( 15 - 15) =     17.75906  eV     1   --> A_2  D_2  S_2  
     e( 16 - 16) =     17.90995  eV     1   --> A_1  D_1  S_1  
     e( 17 - 18) =     20.28473  eV     2   --> B_1  D_3  S_3  
     e( 17 - 18) =     20.28473  eV     2   --> B_2  D_4  S_4  
     e( 19 - 19) =     20.83982  eV     1   --> A_1  D_1  S_1  
     e( 20 - 21) =     24.97825  eV     2   --> B_1  D_3  S_3  
     e( 20 - 21) =     24.97825  eV     2   --> B_2  D_4  S_4  
     e( 22 - 22) =     26.65865  eV     1   --> A_1  D_1  S_1  
     e( 23 - 23) =     26.78412  eV     1   --> A_2  D_2  S_2  
     e( 24 - 24) =     27.96469  eV     1   --> A_1  D_1  S_1  
     e( 25 - 25) =     33.92869  eV     1   --> A_1  D_1  S_1  
     e( 26 - 27) =     34.44181  eV     2   --> B_1  D_3  S_3  
     e( 26 - 27) =     34.44181  eV     2   --> B_2  D_4  S_4  
     e( 28 - 28) =     35.07752  eV     1   --> A_1  D_1  S_1  
[...]
     e(  6 -  6) =     -5.89115  eV     1   --> A'             
     e(  7 -  7) =      4.50056  eV     1   --> A'             
     e(  8 -  8) =      6.01427  eV     1   --> A''            
     e(  9 -  9) =      6.06981  eV     1   --> A'             
     e( 10 - 10) =      8.74536  eV     1   --> A'             
     e( 11 - 11) =      9.77795  eV     1   --> A'             
     e( 12 - 12) =     11.11863  eV     1   --> A''            
     e( 13 - 13) =     11.17707  eV     1   --> A'             
     e( 14 - 14) =     14.74297  eV     1   --> A'             
     e( 15 - 15) =     15.33328  eV     1   --> A'             
     e( 16 - 16) =     16.66548  eV     1   --> A''            
     e( 17 - 17) =     18.11343  eV     1   --> A'             
     e( 18 - 18) =     18.98214  eV     1   --> A''            
     e( 19 - 19) =     19.84633  eV     1   --> A'             
     e( 20 - 20) =     23.06415  eV     1   --> A'             
     e( 21 - 21) =     28.45035  eV     1   --> A'             
     e( 22 - 22) =     28.50089  eV     1   --> A''            
     e( 23 - 23) =     30.28263  eV     1   --> A'             
     e( 24 - 24) =     31.10341  eV     1   --> A''            
     e( 25 - 25) =     32.05372  eV     1   --> A'             
     e( 26 - 26) =     33.64944  eV     1   --> A''            
     e( 27 - 27) =     34.48701  eV     1   --> A'             
     e( 28 - 28) =     36.08453  eV     1   --> A'             
     e( 29 - 29) =     37.09080  eV     1   --> A''            
     e( 30 - 30) =     37.93344  eV     1   --> A'             
     e( 31 - 31) =     39.31334  eV     1   --> A''            
     e( 32 - 32) =     40.83414  eV     1   --> A'             
     e( 33 - 33) =     42.02409  eV     1   --> A'             
     e( 34 - 34) =     42.15436  eV     1   --> A''            
     e( 35 - 35) =     42.64143  eV     1   --> A'             
     e( 36 - 36) =     43.99577  eV     1   --> A'             

 **************************************************************************

 **************************************************************************

                    xk=(   0.20000,   0.05000,   0.05000  )

     Band symmetry, C_s (m)     point group:

     e(  1 -  1) =     -8.29086  eV     1   --> A'             
     e(  2 -  2) =     -8.27253  eV     1   --> A'             
     e(  3 -  3) =     -8.27225  eV     1   --> A''            
     e(  4 -  4) =     -8.20033  eV     1   --> A'             
     e(  5 -  5) =     -8.19711  eV     1   --> A''            
     e(  6 -  6) =     -5.95367  eV     1   --> A'             
     e(  7 -  7) =      4.82680  eV     1   --> A'             
     e(  8 -  8) =      6.14731  eV     1   --> A''            
     e(  9 -  9) =      6.20145  eV     1   --> A'             
     e( 10 - 10) =      8.53459  eV     1   --> A'             
     e( 11 - 11) =      9.86260  eV     1   --> A'             
     e( 12 - 12) =     10.91880  eV     1   --> A''            
     e( 13 - 13) =     10.95480  eV     1   --> A'             
     e( 14 - 14) =     14.89974  eV     1   --> A'             
     e( 15 - 15) =     15.17546  eV     1   --> A'             
     e( 16 - 16) =     16.65158  eV     1   --> A''            
     e( 17 - 17) =     18.08380  eV     1   --> A'             
     e( 18 - 18) =     18.77447  eV     1   --> A''            
     e( 19 - 19) =     19.55129  eV     1   --> A'             
     e( 20 - 20) =     22.54965  eV     1   --> A'             
     e( 21 - 21) =     29.06699  eV     1   --> A'             
     e( 22 - 22) =     29.13194  eV     1   --> A''            
     e( 23 - 23) =     30.61928  eV     1   --> A'             
     e( 24 - 24) =     31.50423  eV     1   --> A''            
     e( 25 - 25) =     32.22484  eV     1   --> A'             
     e( 26 - 26) =     33.57577  eV     1   --> A''            
     e( 27 - 27) =     34.32529  eV     1   --> A'             
     e( 28 - 28) =     35.70173  eV     1   --> A'             
     e( 29 - 29) =     36.60600  eV     1   --> A''            
     e( 30 - 30) =     37.38593  eV     1   --> A'             
     e( 31 - 31) =     38.57640  eV     1   --> A''            
     e( 32 - 32) =     41.36898  eV     1   --> A'             
     e( 33 - 33) =     42.53034  eV     1   --> A'             
     e( 34 - 34) =     42.82918  eV     1   --> A''            
     e( 35 - 35) =     43.04345  eV     1   --> A'             
     e( 36 - 36) =     44.58310  eV     1   --> A'             

 **************************************************************************

 **************************************************************************

                    xk=(   0.16667,   0.04167,   0.04167  )

     Band symmetry, C_s (m)     point group:

     e(  1 -  1) =     -8.28685  eV     1   --> A'             
     e(  2 -  2) =     -8.27387  eV     1   --> A'             
     e(  3 -  3) =     -8.27366  eV     1   --> A''            
     e(  4 -  4) =     -8.19985  eV     1   --> A'             
     e(  5 -  5) =     -8.19749  eV     1   --> A''            
     e(  6 -  6) =     -6.00701  eV     1   --> A'             
     e(  7 -  7) =      5.15545  eV     1   --> A'             
     e(  8 -  8) =      6.27234  eV     1   --> A''            
     e(  9 -  9) =      6.31933  eV     1   --> A'             
     e( 10 - 10) =      8.29795  eV     1   --> A'             
     e( 11 - 11) =      9.95438  eV     1   --> A'             
     e( 12 - 12) =     10.73529  eV     1   --> A''            
     e( 13 - 13) =     10.75298  eV     1   --> A'             
     e( 14 - 14) =     14.71568  eV     1   --> A'             
     e( 15 - 15) =     15.40880  eV     1   --> A'             
     e( 16 - 16) =     16.65171  eV     1   --> A''            
     e( 17 - 17) =     18.07195  eV     1   --> A'             
     e( 18 - 18) =     18.58866  eV     1   --> A''            
     e( 19 - 19) =     19.26132  eV     1   --> A'             
     e( 20 - 20) =     22.08277  eV     1   --> A'             
     e( 21 - 21) =     29.68196  eV     1   --> A'             
     e( 22 - 22) =     29.75890  eV     1   --> A''            
     e( 23 - 23) =     30.95333  eV     1   --> A'             
     e( 24 - 24) =     31.92078  eV     1   --> A''            
     e( 25 - 25) =     32.39906  eV     1   --> A'             
     e( 26 - 26) =     33.50908  eV     1   --> A''            
     e( 27 - 27) =     34.15384  eV     1   --> A'             
     e( 28 - 28) =     35.33052  eV     1   --> A'             
     e( 29 - 29) =     36.13027  eV     1   --> A''            
     e( 30 - 30) =     36.81253  eV     1   --> A'             
     e( 31 - 31) =     37.83627  eV     1   --> A''            
     e( 32 - 32) =     41.61095  eV     1   --> A'             
     e( 33 - 33) =     43.09344  eV     1   --> A'             
     e( 34 - 34) =     43.50363  eV     1   --> A''            
     e( 35 - 35) =     43.60321  eV     1   --> A'             
     e( 36 - 36) =     45.08927  eV     1   --> A'             

 **************************************************************************

 **************************************************************************

                    xk=(   0.13333,   0.03333,   0.03333  )

     Band symmetry, C_s (m)     point group:

     e(  1 -  1) =     -8.28336  eV     1   --> A'             
     e(  2 -  2) =     -8.27491  eV     1   --> A'             
     e(  3 -  3) =     -8.27472  eV     1   --> A''            
     e(  4 -  4) =     -8.19932  eV     1   --> A'             
     e(  5 -  5) =     -8.19771  eV     1   --> A''            
     e(  6 -  6) =     -6.05095  eV     1   --> A'             
     e(  7 -  7) =      5.48495  eV     1   --> A'             
     e(  8 -  8) =      6.38510  eV     1   --> A''            
     e(  9 -  9) =      6.42101  eV     1   --> A'             
     e( 10 - 10) =      8.04025  eV     1   --> A'             
     e( 11 - 11) =     10.04517  eV     1   --> A'             
     e( 12 - 12) =     10.57334  eV     1   --> A''            
     e( 13 - 13) =     10.57914  eV     1   --> A'             
     e( 14 - 14) =     14.49263  eV     1   --> A'             
     e( 15 - 15) =     15.72779  eV     1   --> A'             
     e( 16 - 16) =     16.66224  eV     1   --> A''            
     e( 17 - 17) =     18.07333  eV     1   --> A'             
     e( 18 - 18) =     18.42748  eV     1   --> A''            
     e( 19 - 19) =     18.97394  eV     1   --> A'             
     e( 20 - 20) =     21.67470  eV     1   --> A'             
     e( 21 - 21) =     30.28908  eV     1   --> A'             
     e( 22 - 22) =     30.37364  eV     1   --> A''            
     e( 23 - 23) =     31.27848  eV     1   --> A'             
     e( 24 - 24) =     32.35513  eV     1   --> A''            
     e( 25 - 25) =     32.57507  eV     1   --> A'             
     e( 26 - 26) =     33.44768  eV     1   --> A''            
     e( 27 - 27) =     33.96801  eV     1   --> A'             
     e( 28 - 28) =     34.98275  eV     1   --> A'             
     e( 29 - 29) =     35.67060  eV     1   --> A''            
     e( 30 - 30) =     36.23625  eV     1   --> A'             
     e( 31 - 31) =     37.10609  eV     1   --> A''            
     e( 32 - 32) =     41.62729  eV     1   --> A'             
     e( 33 - 33) =     43.79029  eV     1   --> A'             
     e( 34 - 34) =     44.16051  eV     1   --> A''            
     e( 35 - 35) =     44.20825  eV     1   --> A'             
     e( 36 - 36) =     45.47081  eV     1   --> A'             

 **************************************************************************

 **************************************************************************

                    xk=(   0.10000,   0.02500,   0.02500  )

     Band symmetry, C_s (m)     point group:

     e(  1 -  1) =     -8.28054  eV     1   --> A'             
     e(  2 -  2) =     -8.27572  eV     1   --> A'             
     e(  3 -  3) =     -8.27561  eV     1   --> A''            
     e(  4 -  4) =     -8.19882  eV     1   --> A'             
     e(  5 -  5) =     -8.19802  eV     1   --> A''            
     e(  6 -  6) =     -6.08531  eV     1   --> A'             
     e(  7 -  7) =      5.81298  eV     1   --> A'             
     e(  8 -  8) =      6.48071  eV     1   --> A''            
     e(  9 -  9) =      6.50389  eV     1   --> A'             
     e( 10 - 10) =      7.76583  eV     1   --> A'             
     e( 11 - 11) =     10.12742  eV     1   --> A'             
     e( 12 - 12) =     10.43862  eV     1   --> A''            
     e( 13 - 13) =     10.43876  eV     1   --> A'             
     e( 14 - 14) =     14.30118  eV     1   --> A'             
     e( 15 - 15) =     16.05619  eV     1   --> A'             
     e( 16 - 16) =     16.67878  eV     1   --> A''            
     e( 17 - 17) =     18.08301  eV     1   --> A'             
     e( 18 - 18) =     18.29451  eV     1   --> A''            
     e( 19 - 19) =     18.69011  eV     1   --> A'             
     e( 20 - 20) =     21.33823  eV     1   --> A'             
     e( 21 - 21) =     30.87790  eV     1   --> A'             
     e( 22 - 22) =     30.96201  eV     1   --> A''            
     e( 23 - 23) =     31.58332  eV     1   --> A'             
     e( 24 - 24) =     32.75049  eV     1   --> A'             
     e( 25 - 25) =     32.80629  eV     1   --> A''            
     e( 26 - 26) =     33.39132  eV     1   --> A''            
     e( 27 - 27) =     33.75911  eV     1   --> A'             
     e( 28 - 28) =     34.67838  eV     1   --> A'             
     e( 29 - 29) =     35.23937  eV     1   --> A''            
     e( 30 - 30) =     35.67612  eV     1   --> A'             
     e( 31 - 31) =     36.39371  eV     1   --> A''            
     e( 32 - 32) =     41.56823  eV     1   --> A'             
     e( 33 - 33) =     44.52767  eV     1   --> A'             
     e( 34 - 34) =     44.78473  eV     1   --> A''            
     e( 35 - 35) =     44.80815  eV     1   --> A'             
     e( 36 - 36) =     45.75823  eV     1   --> A'             

 **************************************************************************

 **************************************************************************

                    xk=(   0.06667,   0.01667,   0.01667  )

     Band symmetry, C_s (m)     point group:

     e(  1 -  1) =     -8.27854  eV     1   --> A'             
     e(  2 -  2) =     -8.27639  eV     1   --> A'             
     e(  3 -  3) =     -8.27628  eV     1   --> A''            
     e(  4 -  4) =     -8.19849  eV     1   --> A'             
     e(  5 -  5) =     -8.19820  eV     1   --> A''            
     e(  6 -  6) =     -6.10996  eV     1   --> A'             
     e(  7 -  7) =      6.13507  eV     1   --> A'             
     e(  8 -  8) =      6.55405  eV     1   --> A''            
     e(  9 -  9) =      6.56542  eV     1   --> A'             
     e( 10 - 10) =      7.48072  eV     1   --> A'             
     e( 11 - 11) =     10.19359  eV     1   --> A'             
     e( 12 - 12) =     10.33578  eV     1   --> A'             
     e( 13 - 13) =     10.33690  eV     1   --> A''            
     e( 14 - 14) =     14.15526  eV     1   --> A'             
     e( 15 - 15) =     16.36627  eV     1   --> A'             
     e( 16 - 16) =     16.69633  eV     1   --> A''            
     e( 17 - 17) =     18.09563  eV     1   --> A'             
     e( 18 - 18) =     18.19422  eV     1   --> A''            
     e( 19 - 19) =     18.42084  eV     1   --> A'             
     e( 20 - 20) =     21.08638  eV     1   --> A'             
     e( 21 - 21) =     31.42793  eV     1   --> A'             
     e( 22 - 22) =     31.49747  eV     1   --> A''            
     e( 23 - 23) =     31.84689  eV     1   --> A'             
     e( 24 - 24) =     32.91869  eV     1   --> A'             
     e( 25 - 25) =     33.18897  eV     1   --> A''            
     e( 26 - 26) =     33.42134  eV     1   --> A''            
     e( 27 - 27) =     33.51790  eV     1   --> A'             
     e( 28 - 28) =     34.45090  eV     1   --> A'             
     e( 29 - 29) =     34.86236  eV     1   --> A''            
     e( 30 - 30) =     35.15852  eV     1   --> A'             
     e( 31 - 31) =     35.70663  eV     1   --> A''            
     e( 32 - 32) =     41.50199  eV     1   --> A'             
     e( 33 - 33) =     45.23173  eV     1   --> A'             
     e( 34 - 34) =     45.35571  eV     1   --> A''            
     e( 35 - 35) =     45.37810  eV     1   --> A'             
     e( 36 - 36) =     45.96619  eV     1   --> A'             

 **************************************************************************

 **************************************************************************

                    xk=(   0.03333,   0.00833,   0.00833  )

     Band symmetry, C_s (m)     point group:

     e(  1 -  1) =     -8.27735  eV     1   --> A'             
     e(  2 -  3) =     -8.27682  eV     2   --> A'             
     e(  2 -  3) =     -8.27682  eV     2   --> A''            
     e(  4 -  5) =     -8.19836  eV     2   --> A'             
     e(  4 -  5) =     -8.19836  eV     2   --> A''            
     e(  6 -  6) =     -6.12479  eV     1   --> A'             
     e(  7 -  7) =      6.43682  eV     1   --> A'             
     e(  8 -  8) =      6.60036  eV     1   --> A''            
     e(  9 -  9) =      6.60338  eV     1   --> A'             
     e( 10 - 10) =      7.20057  eV     1   --> A'             
     e( 11 - 11) =     10.23674  eV     1   --> A'             
     e( 12 - 12) =     10.27290  eV     1   --> A'             
     e( 13 - 13) =     10.27338  eV     1   --> A''            
     e( 14 - 14) =     14.06373  eV     1   --> A'             
     e( 15 - 15) =     16.61297  eV     1   --> A'             
     e( 16 - 16) =     16.70968  eV     1   --> A''            
     e( 17 - 17) =     18.10596  eV     1   --> A'             
     e( 18 - 18) =     18.13138  eV     1   --> A''            
     e( 19 - 19) =     18.20188  eV     1   --> A'             
     e( 20 - 20) =     20.93031  eV     1   --> A'             
     e( 21 - 21) =     31.88873  eV     1   --> A'             
     e( 22 - 22) =     31.92225  eV     1   --> A''            
     e( 23 - 23) =     32.03440  eV     1   --> A'             
     e( 24 - 24) =     33.05791  eV     1   --> A'             
     e( 25 - 25) =     33.17012  eV     1   --> A''            
     e( 26 - 26) =     33.26067  eV     1   --> A'             
     e( 27 - 27) =     33.87150  eV     1   --> A''            
     e( 28 - 28) =     34.34783  eV     1   --> A'             
     e( 29 - 29) =     34.58958  eV     1   --> A''            
     e( 30 - 30) =     34.72813  eV     1   --> A'             
     e( 31 - 31) =     35.05316  eV     1   --> A''            
     e( 32 - 32) =     41.45521  eV     1   --> A'             
     e( 33 - 33) =     45.79719  eV     1   --> A'             
     e( 34 - 34) =     45.82565  eV     1   --> A''            
     e( 35 - 35) =     45.86909  eV     1   --> A'             
     e( 36 - 36) =     46.12056  eV     1   --> A'             

 **************************************************************************

 **************************************************************************

                    xk=(   0.00000,   0.00000,   0.00000  )

     point group T_d (-43m) 
     there are  5 classes
     the character table:

       E     8C3   3C2   6S4   6s_d 
A_1    1.00  1.00  1.00  1.00  1.00
A_2    1.00  1.00  1.00 -1.00 -1.00
E      2.00 -1.00  2.00  0.00  0.00
T_1    3.00  0.00 -1.00  1.00 -1.00
T_2    3.00  0.00 -1.00 -1.00  1.00

     the symmetry operations in each class and the name of the first element:

     E        1
                                                                 
     8C3      5    7    8    6   12    9   10   11
                                                                 
     3C2      2    3    4
                                                                 
     6S4     15   16   20   19   23   24
                                                                 
     6s_d    13   14   17   18   21   22
                                                                 

     Band symmetry, T_d (-43m)  point group:

     e(  1 -  3) =     -8.27697  eV     3   --> T_2  G_15 P_4  
     e(  4 -  5) =     -8.19837  eV     2   --> E    G_12 P_3  
     e(  6 -  6) =     -6.12974  eV     1   --> A_1  G_1  P_1  
     e(  7 -  9) =      6.61622  eV     3   --> T_2  G_15 P_4  
     e( 10 - 10) =      7.02828  eV     1   --> A_1  G_1  P_1  
     e( 11 - 13) =     10.25176  eV     3   --> T_2  G_15 P_4  
     e( 14 - 14) =     14.03250  eV     1   --> A_1  G_1  P_1  
     e( 15 - 16) =     16.71468  eV     2   --> E    G_12 P_3  
     e( 17 - 19) =     18.10992  eV     3   --> T_2  G_15 P_4  
     e( 20 - 20) =     20.87742  eV     1   --> A_1  G_1  P_1  
     e( 21 - 23) =     32.10386  eV     3   --> T_2  G_15 P_4  
     e( 24 - 26) =     33.11689  eV     3   --> T_2  G_15 P_4  
     e( 27 - 28) =     34.38744  eV     2   --> E    G_12 P_3  
     e( 29 - 31) =     34.48750  eV     3   --> T_1  G_25 P_5  
     e( 32 - 32) =     41.43863  eV     1   --> A_1  G_1  P_1  
     e( 33 - 35) =     46.04021  eV     3   --> T_2  G_15 P_4  
     e( 36 - 36) =     46.26576  eV     1   -->   ?

 **************************************************************************

     BANDS        :     54.22s CPU     56.87s WALL


   This run was terminated on:  21:46:34   9Dec2025            

=------------------------------------------------------------------------------=
   JOB DONE.
=------------------------------------------------------------------------------=
