
     Program PWSCF v.7.5 starts on  9Dec2025 at 21:39:45 

     This program is part of the open-source Quantum ESPRESSO suite
     for quantum simulation of materials; please cite
         "P. Giannozzi et al., J. Phys.:Condens. Matter 21 395502 (2009);
         "P. Giannozzi et al., J. Phys.:Condens. Matter 29 465901 (2017);
         "P. Giannozzi et al., J. Chem. Phys. 152 154105 (2020);
          URL http://www.quantum-espresso.org", 
     in publications or presentations arising from this work. More details at
     http://www.quantum-espresso.org/quote

     Serial version
     22002 MiB available memory on the printing compute node when the environment starts

     Reading input from GaAs.nscf.in

     Current dimensions of program PWSCF are:
     Max number of different atomic species (ntypx) = 10
     Max number of k-points (npk) =  40000
     Max angular momentum in pseudopotentials (lmaxx) =  4
     file Ga.pbesol-dnl-rrkjus_psl.1.0.0.UPF: wavefunction(s)  3D renormalized

     Atomic positions and unit cell read from directory:
     ./outdir/GaAs.save/



     G-vector sticks info
     --------------------
     sticks:   dense  smooth     PW     G-vecs:    dense   smooth      PW
     Sum        1573     769    241                41151    14361    2445

     Using Slab Decomposition



     bravais-lattice index     =            2
     lattice parameter (alat)  =      10.6890  a.u.
     unit-cell volume          =     305.3201 (a.u.)^3
     number of atoms/cell      =            2
     number of atomic types    =            2
     number of electrons       =        18.00
     number of Kohn-Sham states=           36
     kinetic-energy cutoff     =      50.0000  Ry
     charge density cutoff     =     400.0000  Ry
     Exchange-correlation= PBESOL
                           (   1   4  10   8   0   0   0)
     Hubbard projectors: ortho-atomic
     Hubbard parameters of DFT+U (Dudarev formulation) in eV:
     U(Ga-3d) =  3.0000
     U(As-4p) =  3.0000

     Internal variables: lda_plus_u =T, lda_plus_u_kind = 0

     Internal variables: orbital_resolved =F, hub_pot_fix =F, apply_U = F

     celldm(1)=  10.689034  celldm(2)=   0.000000  celldm(3)=   0.000000
     celldm(4)=   0.000000  celldm(5)=   0.000000  celldm(6)=   0.000000

     crystal axes: (cart. coord. in units of alat)
               a(1) = (  -0.500000   0.000000   0.500000 )  
               a(2) = (   0.000000   0.500000   0.500000 )  
               a(3) = (  -0.500000   0.500000   0.000000 )  

     reciprocal axes: (cart. coord. in units 2 pi/alat)
               b(1) = ( -1.000000 -1.000000  1.000000 )  
               b(2) = (  1.000000  1.000000  1.000000 )  
               b(3) = ( -1.000000  1.000000 -1.000000 )  


     PseudoPot. # 1 for Ga read from file:
     /home/kirill/Desktop/src/q-e-pseudos/Ga.pbesol-dnl-rrkjus_psl.1.0.0.UPF
     MD5 check sum: af75e18138b17f4c63d92c4186babeee
     Pseudo is Ultrasoft + core correction, Zval = 13.0
     Generated using &quot;atomic&quot; code by A. Dal Corso  v.6.3
     Using radial grid of 1205 points,  6 beta functions with: 
                l(1) =   0
                l(2) =   0
                l(3) =   1
                l(4) =   1
                l(5) =   2
                l(6) =   2
     Q(r) pseudized with 0 coefficients 


     PseudoPot. # 2 for As read from file:
     /home/kirill/Desktop/src/q-e-pseudos/As.pbesol-n-rrkjus_psl.0.2.UPF
     MD5 check sum: aea6fa71b557bb134146747eb310c298
     Pseudo is Ultrasoft + core correction, Zval =  5.0
     Generated using "atomic" code by A. Dal Corso  v.5.0.2 svn rev. 9415
     Using radial grid of 1209 points,  4 beta functions with: 
                l(1) =   0
                l(2) =   0
                l(3) =   1
                l(4) =   1
     Q(r) pseudized with 0 coefficients 


     atomic species   valence    mass     pseudopotential
     Ga               13.00    69.72300     Ga( 1.00)
     As                5.00    74.92159     As( 1.00)

     24 Sym. Ops. (no inversion) found



   Cartesian axes

     site n.     atom                  positions (alat units)
         1        Ga     tau(   1) = (   0.0000000   0.0000000   0.0000000  )
         2        As     tau(   2) = (  -0.2500000   0.2500000   0.2500000  )

     number of k points=    72 (tetrahedron method)
                       cart. coord. in units 2pi/alat
        k(    1) = (   0.0000000   0.0000000   0.0000000), wk =   0.0011574
        k(    2) = (  -0.0833333   0.0833333  -0.0833333), wk =   0.0092593
        k(    3) = (  -0.1666667   0.1666667  -0.1666667), wk =   0.0092593
        k(    4) = (  -0.2500000   0.2500000  -0.2500000), wk =   0.0092593
        k(    5) = (  -0.3333333   0.3333333  -0.3333333), wk =   0.0092593
        k(    6) = (  -0.4166667   0.4166667  -0.4166667), wk =   0.0092593
        k(    7) = (   0.5000000  -0.5000000   0.5000000), wk =   0.0046296
        k(    8) = (   0.0000000   0.1666667   0.0000000), wk =   0.0069444
        k(    9) = (  -0.0833333   0.2500000  -0.0833333), wk =   0.0277778
        k(   10) = (  -0.1666667   0.3333333  -0.1666667), wk =   0.0277778
        k(   11) = (  -0.2500000   0.4166667  -0.2500000), wk =   0.0277778
        k(   12) = (  -0.3333333   0.5000000  -0.3333333), wk =   0.0277778
        k(   13) = (   0.5833333  -0.4166667   0.5833333), wk =   0.0277778
        k(   14) = (   0.5000000  -0.3333333   0.5000000), wk =   0.0277778
        k(   15) = (   0.4166667  -0.2500000   0.4166667), wk =   0.0277778
        k(   16) = (   0.3333333  -0.1666667   0.3333333), wk =   0.0277778
        k(   17) = (   0.2500000  -0.0833333   0.2500000), wk =   0.0277778
        k(   18) = (   0.1666667  -0.0000000   0.1666667), wk =   0.0138889
        k(   19) = (   0.0000000   0.3333333   0.0000000), wk =   0.0069444
        k(   20) = (  -0.0833333   0.4166667  -0.0833333), wk =   0.0277778
        k(   21) = (  -0.1666667   0.5000000  -0.1666667), wk =   0.0277778
        k(   22) = (  -0.2500000   0.5833333  -0.2500000), wk =   0.0277778
        k(   23) = (   0.6666667  -0.3333333   0.6666667), wk =   0.0277778
        k(   24) = (   0.5833333  -0.2500000   0.5833333), wk =   0.0277778
        k(   25) = (   0.5000000  -0.1666667   0.5000000), wk =   0.0277778
        k(   26) = (   0.4166667  -0.0833333   0.4166667), wk =   0.0277778
        k(   27) = (   0.3333333   0.0000000   0.3333333), wk =   0.0138889
        k(   28) = (   0.0000000   0.5000000   0.0000000), wk =   0.0069444
        k(   29) = (  -0.0833333   0.5833333  -0.0833333), wk =   0.0277778
        k(   30) = (  -0.1666667   0.6666667  -0.1666667), wk =   0.0277778
        k(   31) = (   0.7500000  -0.2500000   0.7500000), wk =   0.0277778
        k(   32) = (   0.6666667  -0.1666667   0.6666667), wk =   0.0277778
        k(   33) = (   0.5833333  -0.0833333   0.5833333), wk =   0.0277778
        k(   34) = (   0.5000000   0.0000000   0.5000000), wk =   0.0138889
        k(   35) = (   0.0000000   0.6666667   0.0000000), wk =   0.0069444
        k(   36) = (  -0.0833333   0.7500000  -0.0833333), wk =   0.0277778
        k(   37) = (   0.8333333  -0.1666667   0.8333333), wk =   0.0277778
        k(   38) = (   0.7500000  -0.0833333   0.7500000), wk =   0.0277778
        k(   39) = (   0.6666667   0.0000000   0.6666667), wk =   0.0138889
        k(   40) = (   0.0000000   0.8333333   0.0000000), wk =   0.0069444
        k(   41) = (   0.9166667  -0.0833333   0.9166667), wk =   0.0277778
        k(   42) = (   0.8333333   0.0000000   0.8333333), wk =   0.0138889
        k(   43) = (   0.0000000  -1.0000000   0.0000000), wk =   0.0034722
        k(   44) = (  -0.1666667   0.3333333   0.0000000), wk =   0.0277778
        k(   45) = (  -0.2500000   0.4166667  -0.0833333), wk =   0.0555556
        k(   46) = (  -0.3333333   0.5000000  -0.1666667), wk =   0.0555556
        k(   47) = (   0.5833333  -0.4166667   0.7500000), wk =   0.0555556
        k(   48) = (   0.5000000  -0.3333333   0.6666667), wk =   0.0277778
        k(   49) = (  -0.1666667   0.5000000   0.0000000), wk =   0.0277778
        k(   50) = (  -0.2500000   0.5833333  -0.0833333), wk =   0.0555556
        k(   51) = (   0.6666667  -0.3333333   0.8333333), wk =   0.0555556
        k(   52) = (   0.5833333  -0.2500000   0.7500000), wk =   0.0555556
        k(   53) = (   0.5000000  -0.1666667   0.6666667), wk =   0.0555556
        k(   54) = (   0.4166667  -0.0833333   0.5833333), wk =   0.0555556
        k(   55) = (   0.3333333   0.0000000   0.5000000), wk =   0.0277778
        k(   56) = (  -0.1666667   0.6666667  -0.0000000), wk =   0.0277778
        k(   57) = (   0.7500000  -0.2500000   0.9166667), wk =   0.0555556
        k(   58) = (   0.6666667  -0.1666667   0.8333333), wk =   0.0555556
        k(   59) = (   0.5833333  -0.0833333   0.7500000), wk =   0.0555556
        k(   60) = (   0.5000000   0.0000000   0.6666667), wk =   0.0277778
        k(   61) = (   0.8333333  -0.1666667   1.0000000), wk =   0.0277778
        k(   62) = (   0.7500000  -0.0833333   0.9166667), wk =   0.0555556
        k(   63) = (   0.6666667   0.0000000   0.8333333), wk =   0.0277778
        k(   64) = (  -0.1666667  -1.0000000   0.0000000), wk =   0.0138889
        k(   65) = (   0.6666667  -0.3333333   1.0000000), wk =   0.0277778
        k(   66) = (   0.5833333  -0.2500000   0.9166667), wk =   0.0555556
        k(   67) = (   0.5000000  -0.1666667   0.8333333), wk =   0.0277778
        k(   68) = (   0.6666667  -0.1666667   1.0000000), wk =   0.0277778
        k(   69) = (   0.5833333  -0.0833333   0.9166667), wk =   0.0555556
        k(   70) = (   0.5000000   0.0000000   0.8333333), wk =   0.0277778
        k(   71) = (  -0.3333333  -1.0000000   0.0000000), wk =   0.0138889
        k(   72) = (  -0.5000000  -1.0000000   0.0000000), wk =   0.0069444

     Dense  grid:    41151 G-vectors     FFT dimensions: (  50,  50,  50)

     Smooth grid:    14361 G-vectors     FFT dimensions: (  36,  36,  36)

     Estimated max dynamical RAM per process >     137.69 MB

     The potential is recalculated from file :
     ./outdir/GaAs.save/charge-density


     STARTING HUBBARD OCCUPATIONS:

     =================== HUBBARD OCCUPATIONS ===================
     ------------------------ ATOM    1 ------------------------
     Tr[ns(  1)] =   9.98915
     eigenvalues:
       0.999  0.999  0.999  0.999  0.999
     eigenvectors (columns):
      -0.000 -0.000  0.000 -0.438  0.899
      -0.339  0.299  0.892 -0.000 -0.000
      -0.564  0.694 -0.448 -0.000 -0.000
       0.000  0.000 -0.000 -0.899 -0.438
       0.753  0.655  0.066  0.000  0.000
     occupation matrix ns (before diag.):
       0.999 -0.000 -0.000 -0.000  0.000
      -0.000  0.999 -0.000  0.000  0.000
      -0.000 -0.000  0.999  0.000  0.000
      -0.000  0.000  0.000  0.999 -0.000
       0.000  0.000  0.000 -0.000  0.999
     ------------------------ ATOM    2 ------------------------
     Tr[ns(  2)] =   3.59146
     eigenvalues:
       0.599  0.599  0.599
     eigenvectors (columns):
       0.539 -0.534  0.651
       0.739 -0.071 -0.670
       0.405  0.842  0.356
     occupation matrix ns (before diag.):
       0.599 -0.000  0.000
      -0.000  0.599 -0.000
       0.000 -0.000  0.599

     Number of occupied Hubbard levels =   13.5806

     Atomic wfc used for Hubbard projectors are orthogonalized

     Starting wfcs are   13 randomized atomic wfcs +   23 random wfcs

     Band Structure Calculation
     Davidson diagonalization with overlap

     ethr =  5.56E-12,  avg # of iterations = 39.0

     total cpu time spent up to now is      135.4 secs

     End of band structure calculation

          k = 0.0000 0.0000 0.0000 (  1837 PWs)   bands (ev):

    -9.7602  -9.7602  -9.7602  -9.6966  -9.6966  -6.1297   6.3474   6.3474
     6.3474   7.0283  10.2156  10.2156  10.2156  14.0325  16.7145  16.7145
    18.1096  18.1096  18.1096  20.8774  32.1024  32.1024  32.1024  33.1161
    33.1161  33.1161  34.3874  34.3874  34.4875  34.4875  34.4875  41.4386
    46.0401  46.0401  46.0401  46.2657

          k =-0.0833 0.0833-0.0833 (  1841 PWs)   bands (ev):

    -9.7633  -9.7589  -9.7589  -9.6966  -9.6966  -6.0530   5.1899   6.2381
     6.2381   7.8218  10.3541  10.3820  10.3820  14.5121  16.1556  16.1556
    17.6797  18.9835  18.9835  21.6251  30.2028  30.5586  30.5586  32.9449
    32.9449  33.8671  33.8671  34.5667  34.7272  37.0231  37.0231  41.6224
    43.8414  44.2067  44.2067  45.3585

          k =-0.1667 0.1667-0.1667 (  1820 PWs)   bands (ev):

    -9.7714  -9.7552  -9.7552  -9.6964  -9.6964  -5.8254   3.6963   5.9794
     5.9794   8.1027  10.7549  10.7549  11.1216  15.4192  15.5939  15.5939
    17.3252  20.5441  20.5441  23.2130  27.8385  28.0165  28.0165  33.1391
    33.1391  34.0210  34.0210  34.7988  36.1882  39.8690  39.8690  39.9927
    41.5138  41.5138  43.2355  43.7542

          k =-0.2500 0.2500-0.2500 (  1847 PWs)   bands (ev):

    -9.7832  -9.7510  -9.7510  -9.6959  -9.6959  -5.4635   2.2709   5.6897
     5.6897   7.9176  11.0664  11.0664  12.3807  15.4376  15.5774  15.5774
    18.4315  22.3736  22.3736  25.0597  25.5611  25.5611  25.7356  33.4971
    33.4971  34.2954  34.2954  35.1645  36.1483  37.9046  38.0280  38.0280
    42.0061  42.0061  42.6819  42.6819

          k =-0.3333 0.3333-0.3333 (  1853 PWs)   bands (ev):

    -9.7946  -9.7476  -9.7476  -9.6944  -9.6944  -5.0138   1.0312   5.4473
     5.4473   7.6807  11.1572  11.1572  13.6703  15.2274  16.2311  16.2311
    19.9774  23.1222  23.1222  23.9408  24.5914  24.5914  27.4785  33.3649
    33.8496  33.8496  34.3923  34.3923  35.4269  35.4269  35.6155  37.8941
    40.0625  40.7493  40.7493  41.4369

          k =-0.4167 0.4167-0.4167 (  1838 PWs)   bands (ev):

    -9.8025  -9.7455  -9.7455  -9.6926  -9.6926  -4.5872   0.1209   5.2909
     5.2909   7.5183  11.1173  11.1173  14.1925  15.9557  17.4055  17.4055
    19.8284  21.1249  21.1249  24.5332  26.8024  26.8024  29.4853  30.9308
    31.9499  31.9499  34.4453  34.4453  35.1978  35.1978  35.8071  36.0398
    39.6669  39.8032  39.8032  40.5430

          k = 0.5000-0.5000 0.5000 (  1802 PWs)   bands (ev):

    -9.8054  -9.7445  -9.7445  -9.6914  -9.6914  -4.3950  -0.2338   5.2373
     5.2373   7.4621  11.0872  11.0872  14.1961  16.8462  18.4905  18.4905
    18.9627  19.7657  19.7657  26.0529  28.2087  28.9545  28.9545  29.6463
    29.6463  32.7201  33.1979  34.6202  34.6202  35.3147  35.3147  36.2291
    39.4406  39.4406  39.9365  40.2107

          k = 0.0000 0.1667 0.0000 (  1840 PWs)   bands (ev):

    -9.7658  -9.7576  -9.7576  -9.6979  -9.6956  -6.0273   5.1473   6.0243
     6.0243   8.1913   9.8565  10.6766  10.6766  14.6456  15.3906  16.8311
    18.3495  18.3495  18.9650  22.0112  30.0209  30.0209  30.8039  31.6454
    33.1671  33.4941  33.4941  35.3487  36.4975  36.4975  37.4353  41.6357
    43.4156  43.5291  43.5291  45.3549

          k =-0.0833 0.2500-0.0833 (  1834 PWs)   bands (ev):

    -9.7730  -9.7546  -9.7540  -9.6987  -9.6947  -5.8494   4.0219   5.7103
     5.7972   8.6507   9.8458  11.1516  11.2667  14.6792  15.5498  16.5143
    17.9324  19.3701  20.2876  23.4159  27.8541  27.8995  30.0524  31.2307
    31.7074  33.7086  34.6959  36.4727  37.0227  38.3834  39.9847  40.2901
    41.6393  41.8550  42.4419  43.5360

          k =-0.1667 0.3333-0.1667 (  1828 PWs)   bands (ev):

    -9.7827  -9.7511  -9.7494  -9.6990  -9.6936  -5.5306   2.6717   5.4107
     5.4824   8.5828  10.3180  11.5449  12.0219  14.6537  16.1524  16.3522
    18.1975  21.0350  22.1326  25.1747  25.4396  25.5454  28.1197  31.4566
    31.5490  34.0450  35.0760  36.7491  37.2962  37.9473  39.0619  39.5933
    40.6004  40.7574  41.5966  42.9770

          k =-0.2500 0.4167-0.2500 (  1838 PWs)   bands (ev):

    -9.7934  -9.7478  -9.7457  -9.6980  -9.6924  -5.1049   1.4092   5.1378
     5.1913   8.3589  10.7067  11.6591  12.8379  15.2960  16.0960  16.8314
    19.5883  22.7080  23.3895  23.5037  24.2372  25.8252  27.4648  31.8386
    31.8602  33.6383  34.4531  35.3628  36.0209  36.8605  37.6787  38.8503
    39.1449  39.2393  41.1623  41.7888

          k =-0.3333 0.5000-0.3333 (  1829 PWs)   bands (ev):

    -9.8016  -9.7455  -9.7436  -9.6957  -9.6913  -4.6561   0.3960   4.8487
     5.0820   8.1726  10.8159  11.5530  13.8229  15.6255  16.9652  17.8673
    19.7795  20.9447  22.9165  24.2990  25.2372  26.6315  29.5201  30.9494
    32.0602  32.2239  32.9437  33.8780  35.1412  36.0596  37.3008  37.4478
    37.9443  38.5860  40.3919  40.6797

          k = 0.5833-0.4167 0.5833 (  1829 PWs)   bands (ev):

    -9.8058  -9.7444  -9.7429  -9.6935  -9.6913  -4.3621  -0.1589   4.6569
     5.0920   8.0763  10.8662  11.3981  14.4229  16.2701  17.8481  18.4815
    19.0255  19.9189  21.5100  25.6741  27.5961  28.1110  28.9381  29.8563
    31.1904  32.3898  32.5589  32.8412  34.4178  35.3326  36.4056  37.0945
    37.2475  38.6437  40.1251  40.4491

          k = 0.5000-0.3333 0.5000 (  1830 PWs)   bands (ev):

    -9.8047  -9.7443  -9.7436  -9.6930  -9.6924  -4.4285  -0.0390   4.5835
     5.2169   8.0847  10.9835  11.2854  14.4203  16.2125  17.0894  18.2084
    19.3020  20.9775  21.4529  24.9260  26.8367  28.5590  29.0608  30.2466
    31.4722  31.8673  32.4861  33.0028  35.1643  35.2520  36.4573  37.2920
    37.3192  38.6196  40.2643  40.4965

          k = 0.4167-0.2500 0.4167 (  1833 PWs)   bands (ev):

    -9.7986  -9.7456  -9.7453  -9.6956  -9.6926  -4.8009   0.6984   4.6406
     5.4409   8.1955  11.1527  11.2022  13.7204  15.7000  15.8066  17.8757
    19.7105  21.8803  23.4494  23.7526  24.6338  26.2803  28.6830  31.7771
    32.1448  32.4340  33.2776  34.7365  34.8899  35.9079  37.8208  37.9855
    38.3993  38.6681  40.3672  41.0403

          k = 0.3333-0.1667 0.3333 (  1836 PWs)   bands (ev):

    -9.7889  -9.7492  -9.7477  -9.6975  -9.6937  -5.2561   1.8109   4.8355
     5.7319   8.3831  11.0436  11.1854  12.6343  15.0184  15.7032  16.9049
    19.0875  22.0532  23.1303  23.9933  25.5344  25.8265  26.5769  31.4693
    32.0154  34.3775  34.9839  35.3143  36.0695  37.7635  37.8907  38.7578
    39.6276  39.6831  42.0318  42.2186

          k = 0.2500-0.0833 0.2500 (  1832 PWs)   bands (ev):

    -9.7779  -9.7536  -9.7513  -9.6982  -9.6947  -5.6518   3.1026   5.1747
     6.0310   8.5444  10.7284  10.7316  11.8620  14.8844  15.6215  16.3042
    18.0940  20.1215  22.0911  24.3474  25.3649  27.8302  28.2066  31.1065
    31.7487  34.0028  34.8537  37.2604  37.2777  38.6612  39.0305  40.0857
    40.6172  41.3509  41.8336  42.3959

          k = 0.1667-0.0000 0.1667 (  1841 PWs)   bands (ev):

    -9.7687  -9.7573  -9.7555  -9.6978  -9.6957  -5.9256   4.3572   5.6813
     6.2374   8.3466  10.2824  10.4246  11.1483  15.1612  15.3347  15.9876
    18.2487  18.6252  20.3832  22.6675  27.8771  29.6480  30.5280  31.0658
    32.0216  33.7731  34.4744  35.9546  36.9460  37.2502  39.2156  41.2671
    42.1829  42.2688  43.3176  43.4749

          k = 0.0000 0.3333 0.0000 (  1832 PWs)   bands (ev):

    -9.7807  -9.7502  -9.7502  -9.7009  -9.6932  -5.7222   3.7101   5.3576
     5.3576   8.9298   9.5950  11.7505  11.7505  13.9715  16.1369  17.1804
    19.0732  19.0732  19.7969  24.6885  27.4129  27.4129  28.6978  29.0890
    33.4579  33.8745  33.8745  36.3041  39.1444  39.1444  39.3854  40.4376
    40.4376  40.5367  41.0781  43.4482

          k =-0.0833 0.4167-0.0833 (  1829 PWs)   bands (ev):

    -9.7900  -9.7461  -9.7454  -9.7025  -9.6915  -5.4516   2.7755   4.9844
     5.0363   8.9016   9.7985  12.1593  12.2983  14.1330  17.0171  17.1990
    18.9140  20.1784  21.3288  25.4002  25.4353  26.3808  28.3212  28.7745
    31.6942  34.1773  35.0794  36.3065  37.6689  37.9364  38.7988  39.7843
    40.3618  41.1329  41.6692  42.1075

          k =-0.1667 0.5000-0.1667 (  1831 PWs)   bands (ev):

    -9.7987  -9.7434  -9.7413  -9.7027  -9.6901  -5.0634   1.6789   4.5244
     4.8106   8.9192  10.2443  12.0991  12.5426  15.3044  17.2805  17.5281
    19.5569  21.8597  23.1333  23.3858  23.4947  27.5914  28.4818  29.0739
    30.3186  33.2177  34.5799  35.8361  36.3985  36.4604  37.9545  39.1427
    39.8386  40.4882  40.9374  42.1635

          k =-0.2500 0.5833-0.2500 (  1826 PWs)   bands (ev):

    -9.8053  -9.7420  -9.7386  -9.7010  -9.6895  -4.6204   0.6865   4.0867
     4.7101   8.8190  10.7553  12.4406  12.4600  16.3699  17.4676  18.4108
    19.7703  20.9291  23.0055  23.9846  25.7829  26.1766  29.4914  29.7751
    30.3664  30.9824  33.8622  34.8130  35.3694  35.6654  36.4304  36.7139
    39.2193  39.7877  40.7695  41.4689

          k = 0.6667-0.3333 0.6667 (  1815 PWs)   bands (ev):

    -9.8084  -9.7417  -9.7376  -9.6981  -9.6902  -4.2633   0.0199   3.7542
     4.7440   8.7576  10.9012  12.2367  13.5122  16.3555  18.0671  18.5064
    19.2434  20.2991  23.7756  25.1851  26.2170  27.6277  28.3523  29.8409
    30.4795  31.0304  33.0714  33.2378  34.6598  34.8720  35.5526  36.1592
    37.0874  39.8043  40.1537  41.4398

          k = 0.5833-0.2500 0.5833 (  1816 PWs)   bands (ev):

    -9.8077  -9.7422  -9.7384  -9.6953  -9.6925  -4.2052  -0.0765   3.5665
     4.9067   8.7908  10.9884  12.0062  14.4164  16.0108  16.9515  17.6282
    20.3939  21.8880  22.5027  24.6968  27.3790  28.4271  28.4866  30.0062
    30.2944  30.8067  31.7188  33.3942  34.4885  34.5054  35.5552  35.7029
    37.3180  40.0412  40.1293  41.4559

          k = 0.5000-0.1667 0.5000 (  1822 PWs)   bands (ev):

    -9.8032  -9.7431  -9.7408  -9.6957  -9.6936  -4.4921   0.4412   3.5541
     5.1774   8.9110  11.1616  11.7815  13.5810  15.6039  16.5300  18.2952
    19.8829  22.0239  23.5895  23.8557  25.3419  28.1240  29.4763  29.8953
    30.4865  31.3337  31.6530  34.1867  34.9705  35.3886  35.4132  36.4875
    39.1231  40.5151  40.7148  41.6338

          k = 0.4167-0.0833 0.4167 (  1835 PWs)   bands (ev):

    -9.7958  -9.7448  -9.7448  -9.6983  -9.6932  -4.9274   1.3315   3.7636
     5.5140   9.0595  11.3195  11.4765  12.4179  14.7568  16.8654  18.2523
    19.5468  21.0906  22.5483  25.5742  25.6556  26.3649  28.2661  29.0368
    30.1764  33.6025  34.3064  34.7443  35.6670  35.9756  36.4749  38.4579
    40.9526  41.0125  41.2566  42.1788

          k = 0.3333 0.0000 0.3333 (  1841 PWs)   bands (ev):

    -9.7867  -9.7497  -9.7476  -9.6990  -9.6938  -5.3411   2.3001   4.2869
     5.8392   9.0399  10.9368  11.0557  12.0881  14.5482  16.4015  17.1384
    19.0497  20.5042  22.9924  23.8890  25.9400  27.3468  28.2345  28.8843
    30.3986  34.2731  35.3009  36.4065  36.9267  37.5656  38.3847  39.7656
    40.4482  41.0219  41.4832  41.8370

          k = 0.0000 0.5000 0.0000 (  1828 PWs)   bands (ev):

    -9.8000  -9.7401  -9.7401  -9.7057  -9.6894  -5.2315   2.3315   4.6897
     4.6897   8.4013   9.7091  13.0800  13.0800  13.9287  17.7589  17.9094
    20.2847  20.2847  20.8397  24.9732  24.9732  26.6563  26.7841  27.9644
    33.9286  34.4403  34.4403  35.0775  36.1453  36.1453  37.3613  38.1921
    42.2355  42.7540  42.7540  42.9105

          k =-0.0833 0.5833-0.0833 (  1822 PWs)   bands (ev):

    -9.8085  -9.7361  -9.7354  -9.7072  -9.6878  -4.8903   1.5631   4.2582
     4.4407   8.4311   9.6026  13.0526  13.5883  15.1769  18.1372  18.6121
    20.3587  21.4555  22.6583  23.1438  23.3523  26.3922  26.5400  29.7264
    32.2516  32.8004  34.4160  34.6899  34.9162  35.6345  36.6843  39.0955
    39.7950  41.2780  42.2717  43.0519

          k =-0.1667 0.6667-0.1667 (  1820 PWs)   bands (ev):

    -9.8140  -9.7350  -9.7321  -9.7065  -9.6872  -4.4774   0.7622   3.6725
     4.3227   8.5777  10.1087  12.7639  13.6504  16.7077  18.6430  18.9011
    20.2778  21.0644  22.7610  23.2181  25.0054  26.4870  26.8934  29.6637
    30.3050  32.1411  33.1003  33.3800  35.2244  35.2980  36.6894  37.3720
    38.6177  41.1291  41.3361  41.7956

          k = 0.7500-0.2500 0.7500 (  1821 PWs)   bands (ev):

    -9.8153  -9.7361  -9.7310  -9.7041  -9.6883  -4.1028   0.1400   3.1505
     4.3478   8.6155  11.1331  12.6998  13.4249  16.8713  18.6357  19.0967
    19.6382  20.7245  24.2192  25.2186  25.9058  27.1303  27.3368  27.5749
    29.4388  31.7479  32.1341  33.1000  34.4534  35.3361  36.1657  36.3985
    37.5240  38.5175  40.4030  41.7281

          k = 0.6667-0.1667 0.6667 (  1822 PWs)   bands (ev):

    -9.8132  -9.7383  -9.7318  -9.7006  -9.6910  -3.9541  -0.0760   2.8122
     4.5124   8.7299  11.7814  13.0986  13.3948  15.5552  17.0215  19.0896
    20.8146  22.3280  24.2985  24.5880  26.8359  26.9334  28.0957  28.5049
    29.5537  30.9389  31.7450  32.2720  33.0934  35.3917  35.8955  36.2115
    37.0205  38.2523  40.2945  41.5254

          k = 0.5833-0.0833 0.5833 (  1816 PWs)   bands (ev):

    -9.8085  -9.7405  -9.7347  -9.6970  -9.6944  -4.1388   0.2101   2.7333
     4.7969   8.9473  11.9449  12.6957  13.5043  15.4101  15.6920  19.2474
    21.0039  22.4602  24.0798  24.2603  26.4089  27.0238  28.6872  29.6380
    30.1561  30.6051  31.8032  32.3944  33.0639  34.4639  35.6121  36.4736
    37.5627  40.2636  40.8662  41.8243

          k = 0.5000 0.0000 0.5000 (  1829 PWs)   bands (ev):

    -9.8025  -9.7427  -9.7394  -9.6972  -9.6944  -4.5223   0.7765   3.0189
     5.1582   9.1692  12.0402  12.1295  12.2869  14.9244  16.8743  19.2072
    19.8869  20.9280  24.0969  25.1007  26.0834  26.8631  28.2941  28.9488
    30.3739  31.8914  32.6479  33.5025  33.7463  35.2077  36.1275  37.6776
    38.1660  41.8034  42.1388  42.1804

          k = 0.0000 0.6667 0.0000 (  1832 PWs)   bands (ev):

    -9.8183  -9.7301  -9.7301  -9.7103  -9.6860  -4.6023   1.0620   4.1617
     4.1617   7.9878   9.0556  14.5032  14.5032  15.1278  18.5535  19.5745
    21.9582  21.9582  22.3125  22.7881  22.7881  24.7515  25.1020  31.3280
    31.9318  32.6999  32.6999  33.9872  34.8927  35.2214  35.2214  38.4997
    41.1339  41.4096  41.4096  43.0552

          k =-0.0833 0.7500-0.0833 (  1811 PWs)   bands (ev):

    -9.8238  -9.7273  -9.7263  -9.7111  -9.6849  -4.2422   0.4688   3.7422
     4.0132   8.1117   8.9636  14.4049  14.9149  16.6069  19.1932  19.6272
    21.2100  21.6493  22.4274  23.2344  24.3291  24.5918  25.2748  29.4940
    31.1780  31.1923  32.4537  33.0934  34.2794  35.6387  36.5078  38.4581
    39.9202  40.5233  41.3269  42.1417

          k = 0.8333-0.1667 0.8333 (  1807 PWs)   bands (ev):

    -9.8245  -9.7283  -9.7248  -9.7097  -9.6856  -3.9017   0.0005   3.1135
     4.0114   8.2583   9.7476  14.1128  14.7862  17.1290  18.9072  19.4186
    20.9209  21.2547  23.4964  24.6001  25.3190  25.4234  26.8554  27.3112
    30.0399  30.0961  30.9875  32.6771  34.9650  35.9603  35.9618  37.9654
    38.3043  40.2573  40.6638  41.6325

          k = 0.7500-0.0833 0.7500 (  1820 PWs)   bands (ev):

    -9.8209  -9.7321  -9.7259  -9.7063  -9.6884  -3.7325  -0.1825   2.5970
     4.1559   8.3964  11.0771  13.9398  14.3507  15.6526  17.3637  20.4593
    21.4175  22.5073  23.8901  24.7532  25.0941  26.7718  27.1995  28.7581
    29.3640  29.4501  30.4106  31.9121  33.5679  35.2704  36.4182  37.0473
    37.9726  39.3196  40.1582  41.8691

          k = 0.6667 0.0000 0.6667 (  1798 PWs)   bands (ev):

    -9.8147  -9.7364  -9.7291  -9.7015  -9.6915  -3.8377  -0.0462   2.4131
     4.4307   8.6514  12.2896  13.6459  14.0151  14.2272  16.2263  20.7769
    21.2570  22.7419  24.0941  24.8174  25.4222  27.2619  28.2148  29.2018
    29.3766  29.9140  30.1465  32.9118  33.6440  33.8598  35.4192  36.0261
    37.2361  40.5694  41.4494  41.7097

          k = 0.0000 0.8333 0.0000 (  1816 PWs)   bands (ev):

    -9.8309  -9.7223  -9.7223  -9.7141  -9.6833  -3.9587   0.0287   3.8293
     3.8293   7.8256   8.3825  15.8780  15.8780  16.6069  19.5027  20.1658
    20.9158  20.9158  23.0578  24.1179  24.1179  24.1958  25.1028  28.9566
    29.5329  29.5329  30.4220  34.6847  36.0242  36.0242  36.3166  38.6858
    40.1298  40.1298  40.8204  42.8175

          k = 0.9167-0.0833 0.9167 (  1802 PWs)   bands (ev):

    -9.8322  -9.7220  -9.7207  -9.7137  -9.6832  -3.7157  -0.2869   3.4776
     3.7920   8.0015   8.5122  15.7727  16.0518  17.3189  19.3640  19.4607
    20.6977  21.2970  22.9929  24.0567  25.5254  25.6976  26.6539  26.9328
    28.2006  28.5167  29.8417  33.4918  36.1933  36.3122  37.5784  38.6485
    39.7162  40.0166  40.9321  41.8953

          k = 0.8333 0.0000 0.8333 (  1812 PWs)   bands (ev):

    -9.8283  -9.7259  -9.7221  -9.7108  -9.6853  -3.6280  -0.3355   2.9218
     3.9049   8.1406   9.6039  15.2321  15.4571  16.2610  18.1321  20.1185
    21.9136  22.2555  23.6584  23.9837  24.2652  27.0529  27.1259  27.5310
    27.7371  29.7603  30.0093  31.3833  34.3430  36.2747  37.4172  38.2412
    39.8233  39.9123  40.6975  41.1459

          k = 0.0000-1.0000 0.0000 (  1772 PWs)   bands (ev):

    -9.8349  -9.7192  -9.7192  -9.7150  -9.6819  -3.6355  -0.4256   3.7163
     3.7163   7.9075   8.0035  16.6360  16.6360  17.4737  19.7989  20.0014
    20.0014  20.1491  22.1630  26.0218  26.4780  26.4780  26.5998  26.6288
    26.8258  26.8258  28.2538  35.2878  36.4649  36.4649  37.6808  39.5259
    39.5259  40.5587  40.6822  41.4339

          k =-0.1667 0.3333 0.0000 (  1829 PWs)   bands (ev):

    -9.7813  -9.7512  -9.7495  -9.7000  -9.6934  -5.6250   3.1944   4.9929
     5.7080   9.0642   9.7942  11.5128  11.8844  14.3657  16.3381  16.5181
    18.6954  19.4565  21.6119  24.9444  25.3632  27.4757  28.8038  30.6912
    30.9497  32.9075  36.6245  36.8579  37.6005  38.8219  39.2992  39.8550
    40.3223  41.2868  41.6521  42.4765

          k =-0.2500 0.4167-0.0833 (  1831 PWs)   bands (ev):

    -9.7907  -9.7475  -9.7454  -9.7005  -9.6922  -5.2702   2.1057   4.4484
     5.4652   9.0975  10.2502  11.9034  12.1052  14.7434  16.5627  17.3143
    19.0422  21.0721  23.0608  23.4811  25.5892  26.7795  27.9472  29.6203
    31.0691  32.9609  35.0271  36.8390  37.0620  37.6063  38.4406  39.4285
    40.0074  40.5100  40.8264  41.8174

          k =-0.3333 0.5000-0.1667 (  1827 PWs)   bands (ev):

    -9.7993  -9.7448  -9.7421  -9.6991  -9.6913  -4.8316   1.0237   4.1219
     5.1736   8.9397  10.6592  11.9579  12.6979  15.5622  16.6190  18.2683
    19.5758  21.6820  22.9173  23.8694  25.6307  26.0350  29.0252  29.6473
    31.4276  32.1277  33.3874  34.4291  35.6287  36.7843  37.6106  38.3705
    38.7213  39.6406  40.5723  41.7193

          k = 0.5833-0.4167 0.7500 (  1820 PWs)   bands (ev):

    -9.8052  -9.7436  -9.7399  -9.6967  -9.6912  -4.4178   0.1895   3.9520
     4.9537   8.8105  10.6922  11.9593  13.7388  16.0838  17.1515  18.2649
    19.5450  21.1061  23.2657  24.3381  25.8593  28.0052  29.0888  30.0069
    31.1905  31.6346  32.1463  33.3838  34.0724  35.0027  37.0453  37.2987
    38.0778  38.1963  40.1971  41.8218

          k = 0.5000-0.3333 0.6667 (  1820 PWs)   bands (ev):

    -9.8075  -9.7433  -9.7391  -9.6952  -9.6917  -4.2324  -0.1405   3.9002
     4.8726   8.7638  10.6646  11.9426  14.4975  16.0074  17.2745  18.4156
    19.1578  21.3849  22.2704  25.5569  27.0089  28.2079  28.7353  30.0384
    30.7501  31.0643  32.1024  33.4670  34.1153  34.7601  34.9437  36.8672
    37.7415  38.2370  40.3330  41.9549

          k =-0.1667 0.5000 0.0000 (  1830 PWs)   bands (ev):

    -9.7990  -9.7421  -9.7405  -9.7043  -9.6899  -5.1450   2.0330   4.3246
     4.9012   8.9601   9.8590  12.1634  12.9465  14.7518  17.5311  17.8748
    19.5587  20.8032  22.7159  23.1297  25.0794  26.7443  28.1164  28.7132
    31.4107  33.0490  34.3096  35.3707  37.0345  37.3109  38.4337  39.1579
    39.5750  40.6623  41.6440  42.4034

          k =-0.2500 0.5833-0.0833 (  1829 PWs)   bands (ev):

    -9.8061  -9.7402  -9.7364  -9.7041  -9.6891  -4.7409   1.1686   3.7905
     4.6493   9.1574  10.2458  11.8894  13.3584  15.7530  17.9234  18.6071
    19.9015  21.4039  22.4876  23.5916  24.8383  26.4321  28.6308  29.6614
    30.6426  31.6228  33.1156  33.6238  35.8209  36.7401  37.7522  38.5691
    38.8593  39.9558  40.9429  41.9017

          k = 0.6667-0.3333 0.8333 (  1823 PWs)   bands (ev):

    -9.8102  -9.7400  -9.7337  -9.7022  -9.6894  -4.3221   0.3903   3.4046
     4.4641   9.1617  10.8594  12.0335  13.4228  16.4950  17.9596  18.8342
    19.6926  21.2928  22.9375  24.9732  25.8829  27.0895  28.1354  28.7355
    30.0566  32.0066  32.6037  33.1405  33.8512  35.4840  35.8441  37.5182
    38.8253  39.0964  39.4875  41.4003

          k = 0.5833-0.2500 0.7500 (  1813 PWs)   bands (ev):

    -9.8112  -9.7407  -9.7329  -9.6995  -9.6907  -4.0563  -0.0486   3.1545
     4.4461   9.1999  10.9137  12.7422  13.7154  15.5728  18.1974  18.7292
    19.3318  22.0564  24.1802  24.9840  26.1991  27.3624  28.0361  29.5124
    30.2497  30.5993  31.7792  32.8441  33.8128  34.6004  35.4966  36.5094
    37.3817  38.7624  39.4526  40.9048

          k = 0.5000-0.1667 0.6667 (  1817 PWs)   bands (ev):

    -9.8092  -9.7416  -9.7340  -9.6981  -9.6923  -4.1236   0.0641   3.0644
     4.5996   9.3224  10.8886  12.6639  13.9063  15.3244  17.0776  18.5111
    20.5567  22.5902  23.3355  24.3317  26.7514  27.6575  28.2947  29.7434
    30.1224  30.6703  31.8147  33.0528  33.5294  34.1203  34.8408  37.5629
    37.9796  39.0147  39.5803  40.5630

          k = 0.4167-0.0833 0.5833 (  1826 PWs)   bands (ev):

    -9.8048  -9.7427  -9.7369  -9.6995  -9.6920  -4.4703   0.6502   3.1918
     4.8836   9.4856  10.8924  12.0096  13.1879  15.4950  17.0516  18.8964
    20.0309  21.3882  23.4376  24.6494  25.7774  27.4151  28.1259  29.7590
    30.4887  31.2595  32.5462  33.2310  33.5007  35.3092  36.5592  38.2025
    38.9666  39.6889  40.4466  41.0803

          k = 0.3333 0.0000 0.5000 (  1829 PWs)   bands (ev):

    -9.7984  -9.7443  -9.7411  -9.7007  -9.6917  -4.8965   1.4136   3.6321
     5.2192   9.5286  10.5095  11.7465  12.6082  14.9269  17.4993  18.2034
    19.8322  20.7590  22.4121  24.9646  25.6965  26.7352  28.2989  29.3100
    29.9346  32.7486  33.2254  34.3689  35.7209  36.9416  37.8693  39.5139
    39.8486  40.0905  40.8912  41.0641

          k =-0.1667 0.6667-0.0000 (  1816 PWs)   bands (ev):

    -9.8157  -9.7330  -9.7305  -9.7083  -9.6867  -4.5354   0.9346   3.8176
     4.1980   8.5699   9.4354  13.0559  14.4542  15.9850  18.8217  19.1047
    20.8698  21.4075  22.6577  22.8633  24.2362  25.0520  26.7154  30.7845
    31.0154  32.1746  32.6220  33.5363  34.3419  34.9764  37.5035  38.6787
    39.8040  39.9979  41.0719  41.9502

          k = 0.7500-0.2500 0.9167 (  1818 PWs)   bands (ev):

    -9.8189  -9.7333  -9.7274  -9.7075  -9.6869  -4.1471   0.3366   3.2863
     4.0069   8.8412   9.9620  12.7481  14.7422  16.7561  18.5113  19.7922
    20.2616  21.5979  22.4351  24.1947  25.2185  26.4821  27.0852  28.3262
    30.0530  30.6392  32.9482  33.2940  34.3855  34.6071  35.8285  37.9079
    38.6755  39.5386  40.7295  41.6620

          k = 0.6667-0.1667 0.8333 (  1818 PWs)   bands (ev):

    -9.8180  -9.7356  -9.7265  -9.7050  -9.6887  -3.8588  -0.0524   2.8080
     4.0102   8.9485  11.1253  12.5500  14.4819  15.8612  18.5897  19.4942
    20.2485  22.3243  23.9145  24.9925  25.8708  26.5677  27.2212  28.7082
    29.3594  29.7915  31.6303  32.6043  34.0292  34.8976  35.3403  36.7381
    38.0314  38.8977  39.7364  40.1793

          k = 0.5833-0.0833 0.7500 (  1817 PWs)   bands (ev):

    -9.8145  -9.7384  -9.7280  -9.7017  -9.6914  -3.8371  -0.0654   2.5506
     4.1918   9.1408  11.8549  12.7892  13.9725  14.8862  17.1211  20.1685
    20.9532  23.0277  23.6245  24.7432  26.2888  26.9382  28.0272  28.7601
    29.3929  30.0866  31.7516  32.5417  32.8488  34.0715  35.2802  36.0434
    38.3028  38.8732  39.5264  40.2866

          k = 0.5000 0.0000 0.6667 (  1828 PWs)   bands (ev):

    -9.8099  -9.7409  -9.7317  -9.6997  -9.6930  -4.0933   0.2504   2.6451
     4.5080   9.4047  11.8345  11.9843  14.0829  15.0912  16.2515  20.2422
    20.5112  22.0796  23.9188  24.7145  26.3367  26.9480  28.6153  29.1892
    29.9394  30.1237  31.9223  32.8444  33.5645  33.7187  35.8287  35.9438
    38.8180  39.1535  39.4702  42.2154

          k = 0.8333-0.1667 1.0000 (  1808 PWs)   bands (ev):

    -9.8275  -9.7262  -9.7229  -9.7116  -9.6844  -3.9226   0.0220   3.5275
     3.7188   8.3895   8.8571  14.3622  15.7859  17.0590  18.9528  19.8384
    20.8783  21.6757  22.8567  23.6883  24.4199  25.9560  26.1586  27.8408
    28.7218  30.9676  31.5281  32.7046  34.3473  36.1410  37.0646  38.2356
    39.4641  40.1008  40.7731  41.4609

          k = 0.7500-0.0833 0.9167 (  1812 PWs)   bands (ev):

    -9.8260  -9.7288  -9.7220  -9.7097  -9.6860  -3.6879  -0.2346   3.0032
     3.6780   8.6450   9.6877  14.0441  15.2558  16.7777  18.8207  19.5587
    21.1108  22.6567  23.2906  24.5152  25.0916  25.5829  27.0796  27.8028
    28.7443  30.1560  31.0376  31.4852  33.7083  35.2015  37.4633  37.9463
    38.3397  39.9599  40.2394  41.3452

          k = 0.6667 0.0000 0.8333 (  1817 PWs)   bands (ev):

    -9.8209  -9.7336  -9.7238  -9.7061  -9.6887  -3.6577  -0.2239   2.5689
     3.8629   8.8429  11.0895  13.6431  13.9580  16.0172  17.6597  20.4552
    21.7730  22.8661  23.2633  24.8130  25.2783  26.6570  26.9443  28.7040
    29.3649  29.9435  30.9056  31.9800  32.7949  34.2420  35.1932  37.8559
    38.5634  39.3582  39.6293  41.0205

          k =-0.1667-1.0000 0.0000 (  1800 PWs)   bands (ev):

    -9.8316  -9.7235  -9.7202  -9.7126  -9.6837  -3.6221  -0.3805   3.4616
     3.5226   8.4241   8.5460  15.5929  15.7069  17.4755  18.9650  19.9607
    20.0816  22.1016  23.1905  24.8585  25.3868  25.5322  26.0759  28.0016
    28.2899  28.5024  29.1005  33.1090  34.4492  37.1577  37.4532  39.1757
    39.3829  40.0198  41.2411  41.2936

          k = 0.6667-0.3333 1.0000 (  1835 PWs)   bands (ev):

    -9.8112  -9.7394  -9.7316  -9.7040  -9.6894  -4.3502   0.6168   3.1743
     4.3333   9.8306  10.3291  11.5320  14.3047  15.9054  17.6759  19.6643
    20.3259  21.0432  23.2298  23.9542  25.3858  26.8776  28.8252  29.2147
    29.8863  30.8083  32.1458  32.7597  34.7511  35.5407  36.5941  37.3303
    38.6753  38.7729  41.2643  41.3653

          k = 0.5833-0.2500 0.9167 (  1820 PWs)   bands (ev):

    -9.8135  -9.7396  -9.7282  -9.7027  -9.6903  -3.9923   0.1260   2.8298
     4.0415  10.0049  10.8119  11.7653  14.5603  15.4680  17.6149  19.9155
    20.4587  22.4692  22.8801  24.6441  26.5702  27.3549  27.9394  29.0453
    29.4462  29.6831  31.8632  32.7406  34.4691  34.8412  35.1842  36.1129
    37.2150  38.0636  40.2693  41.7815

          k = 0.5000-0.1667 0.8333 (  1816 PWs)   bands (ev):

    -9.8142  -9.7398  -9.7271  -9.7018  -9.6910  -3.8366  -0.0838   2.7254
     3.9280  10.0220  10.7948  12.6469  13.9059  15.1211  18.7170  19.3284
    19.9131  23.4215  23.9452  24.7096  25.6855  26.7157  28.5840  29.0397
    29.7240  30.0437  31.6866  32.1613  32.9417  34.3124  35.5878  36.9354
    37.2072  37.5947  38.3341  41.8742

          k = 0.6667-0.1667 1.0000 (  1818 PWs)   bands (ev):

    -9.8201  -9.7347  -9.7239  -9.7068  -9.6880  -3.8315  -0.0143   2.9778
     3.5828   9.7191  10.0431  12.4038  15.0371  16.4334  18.2537  20.2324
    20.9272  22.1169  23.0405  23.7667  26.4762  26.9494  27.2667  28.1397
    28.6769  30.0857  31.9502  32.7737  33.6705  34.6233  35.9051  36.7978
    37.3258  37.8724  41.8787  42.5858

          k = 0.5833-0.0833 0.9167 (  1820 PWs)   bands (ev):

    -9.8187  -9.7371  -9.7228  -9.7050  -9.6897  -3.6595  -0.1796   2.7043
     3.4459   9.9916  11.1377  12.1924  13.5720  16.6164  18.8725  19.4946
    21.0668  22.6831  23.9679  24.7448  25.4534  26.5718  27.2295  28.5745
    29.6162  30.6550  31.3925  32.1641  33.3232  33.8435  34.4019  35.7919
    36.7716  38.9874  40.1372  42.4536

          k = 0.5000 0.0000 0.8333 (  1823 PWs)   bands (ev):

    -9.8162  -9.7390  -9.7243  -9.7034  -9.6909  -3.7291  -0.1008   2.5948
     3.6460  10.1953  11.5282  11.8024  13.4824  16.1524  17.8654  20.3826
    21.2809  22.2549  23.2809  25.0979  26.2785  27.1033  27.6841  28.2443
    28.9093  30.9267  31.8783  32.4799  32.6977  34.1955  34.6793  36.0597
    36.2688  37.6197  41.2832  41.8301

          k =-0.3333-1.0000 0.0000 (  1810 PWs)   bands (ev):

    -9.8234  -9.7326  -9.7211  -9.7078  -9.6875  -3.5949  -0.2815   3.0251
     3.1988   9.7100   9.8426  13.5896  13.8830  17.5259  18.8042  19.9101
    20.2466  23.6214  24.3778  24.5940  24.9071  25.2040  25.9150  29.5360
    30.1939  30.4808  30.5261  31.1798  32.1928  34.7794  35.6544  36.5956
    37.6104  40.3407  40.8168  42.4271

          k =-0.5000-1.0000 0.0000 (  1800 PWs)   bands (ev):

    -9.8184  -9.7378  -9.7213  -9.7047  -9.6900  -3.5810  -0.2267   2.8281
     3.0583  11.0272  11.1068  11.9288  12.5000  17.5561  18.7939  19.8858
    20.3451  23.3636  24.3831  24.3967  24.9778  26.2630  27.7437  28.1833
    29.8269  31.1416  31.4316  33.2605  33.3722  33.5876  33.8255  34.1790
    34.8827  40.7878  41.6728  41.8569

     the Fermi energy is     6.9043 ev
     (compare with:     6.3475 eV, computed in scf)

     Writing all to output data dir ./outdir/GaAs.save/ :
     XML data file, pseudopotentials, collected wavefunctions

     init_run     :      1.44s CPU      1.53s WALL (       1 calls)
     electrons    :    132.37s CPU    133.70s WALL (       1 calls)

     Called by init_run:
     wfcinit      :      0.43s CPU      0.44s WALL (       1 calls)
     potinit      :      0.07s CPU      0.08s WALL (       1 calls)
     hinit0       :      0.80s CPU      0.80s WALL (       1 calls)

     Called by electrons:
     c_bands      :    132.29s CPU    133.63s WALL (       1 calls)
     v_of_rho     :      0.06s CPU      0.07s WALL (       1 calls)
     newd         :      0.12s CPU      0.17s WALL (       1 calls)

     Called by c_bands:
     init_us_2    :      0.10s CPU      0.11s WALL (     144 calls)
     cegterg      :    128.25s CPU    129.53s WALL (     174 calls)

     Called by *egterg:
     cdiaghg      :      5.94s CPU      6.00s WALL (    2878 calls)
     h_psi        :     64.86s CPU     65.58s WALL (    3052 calls)
     s_psi        :      3.64s CPU      3.68s WALL (    3196 calls)
     g_psi        :      1.02s CPU      1.03s WALL (    2806 calls)

     Called by h_psi:
     h_psi:calbec :      4.42s CPU      4.47s WALL (    3052 calls)
     vloc_psi     :     54.24s CPU     54.85s WALL (    3052 calls)
                                        0.00s GPU  (    3052 calls)
     add_vuspsi   :      3.53s CPU      3.57s WALL (    3052 calls)
     vhpsi        :      2.47s CPU      2.50s WALL (    3052 calls)

     General routines
     calbec       :      5.85s CPU      5.91s WALL (    6176 calls)
     fft          :      0.03s CPU      0.03s WALL (      13 calls)
     ffts         :      0.00s CPU      0.00s WALL (       1 calls)
     fftw         :     47.35s CPU     47.90s WALL (  118980 calls)
     interpolate  :      0.00s CPU      0.00s WALL (       1 calls)
     davcio       :      0.03s CPU      0.04s WALL (     360 calls)


     Hubbard U routines
     vhpsi        :      2.47s CPU      2.50s WALL (    3052 calls)

     PWSCF        :   2m14.03s CPU   2m15.50s WALL


   This run was terminated on:  21:42: 1   9Dec2025            

=------------------------------------------------------------------------------=
   JOB DONE.
=------------------------------------------------------------------------------=
