
     Program PWSCF v.7.5 starts on  9Dec2025 at 19:49:27 

     This program is part of the open-source Quantum ESPRESSO suite
     for quantum simulation of materials; please cite
         "P. Giannozzi et al., J. Phys.:Condens. Matter 21 395502 (2009);
         "P. Giannozzi et al., J. Phys.:Condens. Matter 29 465901 (2017);
         "P. Giannozzi et al., J. Chem. Phys. 152 154105 (2020);
          URL http://www.quantum-espresso.org", 
     in publications or presentations arising from this work. More details at
     http://www.quantum-espresso.org/quote

     Serial version
     23185 MiB available memory on the printing compute node when the environment starts

     Reading input from GaAs.scf.in

     Current dimensions of program PWSCF are:
     Max number of different atomic species (ntypx) = 10
     Max number of k-points (npk) =  40000
     Max angular momentum in pseudopotentials (lmaxx) =  4
     file Ga.pbesol-dnl-rrkjus_psl.1.0.0.UPF: wavefunction(s)  3D renormalized


     G-vector sticks info
     --------------------
     sticks:   dense  smooth     PW     G-vecs:    dense   smooth      PW
     Sum        1237     313     97                28571     3527     645

     Using Slab Decomposition



     bravais-lattice index     =            2
     lattice parameter (alat)  =       9.4486  a.u.
     unit-cell volume          =     210.8834 (a.u.)^3
     number of atoms/cell      =            2
     number of atomic types    =            2
     number of electrons       =        18.00 (up:   9.00, down:   9.00)
     number of Kohn-Sham states=           36
     kinetic-energy cutoff     =      25.0000  Ry
     charge density cutoff     =     400.0000  Ry
     scf convergence threshold =      1.0E-09
     mixing beta               =       0.3000
     number of iterations used =            8  plain     mixing
     Exchange-correlation= PBESOL
                           (   1   4  10   8   0   0   0)
     Hubbard projectors: ortho-atomic
     Hubbard parameters of DFT+U (Dudarev formulation) in eV:
     U(Ga-3d) =  3.0000
     U(As-4p) =  3.0000

     Internal variables: lda_plus_u =T, lda_plus_u_kind = 0

     Internal variables: orbital_resolved =F, hub_pot_fix =F, apply_U = F

     celldm(1)=   9.448600  celldm(2)=   0.000000  celldm(3)=   0.000000
     celldm(4)=   0.000000  celldm(5)=   0.000000  celldm(6)=   0.000000

     crystal axes: (cart. coord. in units of alat)
               a(1) = (  -0.500000   0.000000   0.500000 )  
               a(2) = (   0.000000   0.500000   0.500000 )  
               a(3) = (  -0.500000   0.500000   0.000000 )  

     reciprocal axes: (cart. coord. in units 2 pi/alat)
               b(1) = ( -1.000000 -1.000000  1.000000 )  
               b(2) = (  1.000000  1.000000  1.000000 )  
               b(3) = ( -1.000000  1.000000 -1.000000 )  


     PseudoPot. # 1 for Ga read from file:
     /home/kirill/Desktop/src/q-e-pseudos/Ga.pbesol-dnl-rrkjus_psl.1.0.0.UPF
     MD5 check sum: af75e18138b17f4c63d92c4186babeee
     Pseudo is Ultrasoft + core correction, Zval = 13.0
     Generated using &quot;atomic&quot; code by A. Dal Corso  v.6.3
     Using radial grid of 1205 points,  6 beta functions with: 
                l(1) =   0
                l(2) =   0
                l(3) =   1
                l(4) =   1
                l(5) =   2
                l(6) =   2
     Q(r) pseudized with 0 coefficients 


     PseudoPot. # 2 for As read from file:
     /home/kirill/Desktop/src/q-e-pseudos/As.pbesol-n-rrkjus_psl.0.2.UPF
     MD5 check sum: aea6fa71b557bb134146747eb310c298
     Pseudo is Ultrasoft + core correction, Zval =  5.0
     Generated using "atomic" code by A. Dal Corso  v.5.0.2 svn rev. 9415
     Using radial grid of 1209 points,  4 beta functions with: 
                l(1) =   0
                l(2) =   0
                l(3) =   1
                l(4) =   1
     Q(r) pseudized with 0 coefficients 


     atomic species   valence    mass     pseudopotential
     Ga               13.00    69.72300     Ga( 1.00)
     As                5.00    74.92159     As( 1.00)

     Starting magnetic structure 
     atomic species   magnetization
     Ga              0.200
     As             -0.200

     24 Sym. Ops. (no inversion) found



   Cartesian axes

     site n.     atom                  positions (alat units)
         1        Ga     tau(   1) = (   0.0000000   0.0000000   0.0000000  )
         2        As     tau(   2) = (  -0.2500000   0.2500000   0.2500000  )

     number of k points=     8
                       cart. coord. in units 2pi/alat
        k(    1) = (   0.0000000   0.0000000   0.0000000), wk =   0.0156250
        k(    2) = (  -0.2500000   0.2500000  -0.2500000), wk =   0.1250000
        k(    3) = (   0.5000000  -0.5000000   0.5000000), wk =   0.0625000
        k(    4) = (   0.0000000   0.5000000   0.0000000), wk =   0.0937500
        k(    5) = (   0.7500000  -0.2500000   0.7500000), wk =   0.3750000
        k(    6) = (   0.5000000   0.0000000   0.5000000), wk =   0.1875000
        k(    7) = (   0.0000000  -1.0000000   0.0000000), wk =   0.0468750
        k(    8) = (  -0.5000000  -1.0000000   0.0000000), wk =   0.0937500

     Dense  grid:    28571 G-vectors     FFT dimensions: (  45,  45,  45)

     Smooth grid:     3527 G-vectors     FFT dimensions: (  24,  24,  24)

     Estimated max dynamical RAM per process >     121.45 MB
     Generating pointlists ...
     new r_m :   0.1786 (alat units)  1.6877 (a.u.) for type    1
     new r_m :   0.1786 (alat units)  1.6877 (a.u.) for type    2

     Initial potential from superposition of free atoms

     starting charge      17.9971, renormalised to      18.0000

     STARTING HUBBARD OCCUPATIONS:

     =================== HUBBARD OCCUPATIONS ===================
     ------------------------ ATOM    1 ------------------------
     Tr[ns(  1)] (up, down, total) =   5.00000  5.00000 10.00000
     Atomic magnetic moment for atom   1 =   0.00000
     SPIN  1
     eigenvalues:
       1.000  1.000  1.000  1.000  1.000
     eigenvectors (columns):
       1.000  0.000  0.000  0.000  0.000
       0.000  1.000  0.000  0.000  0.000
       0.000  0.000  1.000  0.000  0.000
       0.000  0.000  0.000  1.000  0.000
       0.000  0.000  0.000  0.000  1.000
     occupation matrix ns (before diag.):
       1.000  0.000  0.000  0.000  0.000
       0.000  1.000  0.000  0.000  0.000
       0.000  0.000  1.000  0.000  0.000
       0.000  0.000  0.000  1.000  0.000
       0.000  0.000  0.000  0.000  1.000
     SPIN  2
     eigenvalues:
       1.000  1.000  1.000  1.000  1.000
     eigenvectors (columns):
       1.000  0.000  0.000  0.000  0.000
       0.000  1.000  0.000  0.000  0.000
       0.000  0.000  1.000  0.000  0.000
       0.000  0.000  0.000  1.000  0.000
       0.000  0.000  0.000  0.000  1.000
     occupation matrix ns (before diag.):
       1.000  0.000  0.000  0.000  0.000
       0.000  1.000  0.000  0.000  0.000
       0.000  0.000  1.000  0.000  0.000
       0.000  0.000  0.000  1.000  0.000
       0.000  0.000  0.000  0.000  1.000
     ------------------------ ATOM    2 ------------------------
     Tr[ns(  2)] (up, down, total) =   0.00000  3.00000  3.00000
     Atomic magnetic moment for atom   2 =  -3.00000
     SPIN  1
     eigenvalues:
       0.000  0.000  0.000
     eigenvectors (columns):
       1.000  0.000  0.000
       0.000  1.000  0.000
       0.000  0.000  1.000
     occupation matrix ns (before diag.):
       0.000  0.000  0.000
       0.000  0.000  0.000
       0.000  0.000  0.000
     SPIN  2
     eigenvalues:
       1.000  1.000  1.000
     eigenvectors (columns):
       1.000  0.000  0.000
       0.000  1.000  0.000
       0.000  0.000  1.000
     occupation matrix ns (before diag.):
       1.000  0.000  0.000
       0.000  1.000  0.000
       0.000  0.000  1.000

     Number of occupied Hubbard levels =   13.0000

     Atomic wfc used for Hubbard projectors are orthogonalized

     Starting wfcs are   13 randomized atomic wfcs +   23 random wfcs

     total cpu time spent up to now is        1.4 secs

     Self-consistent Calculation

     iteration #  1     ecut=    25.00 Ry     beta= 0.30
     Davidson diagonalization with overlap
     ethr =  1.00E-02,  avg # of iterations =  6.9

     =================== HUBBARD OCCUPATIONS ===================
     ------------------------ ATOM    1 ------------------------
     Tr[ns(  1)] (up, down, total) =   4.98382  4.97674  9.96056
     Atomic magnetic moment for atom   1 =   0.00708
     SPIN  1
     eigenvalues:
       0.996  0.996  0.996  0.998  0.998
     eigenvectors (columns):
      -0.000 -0.000  0.000 -0.393  0.919
      -0.335  0.313  0.889 -0.000 -0.000
      -0.551  0.700 -0.454 -0.000 -0.000
       0.000  0.000 -0.000 -0.919 -0.393
       0.764  0.642  0.062  0.000  0.000
     occupation matrix ns (before diag.):
       0.998 -0.000 -0.000 -0.000  0.000
      -0.000  0.996 -0.000  0.000  0.000
      -0.000 -0.000  0.996  0.000  0.000
      -0.000  0.000  0.000  0.998 -0.000
       0.000  0.000  0.000 -0.000  0.996
     SPIN  2
     eigenvalues:
       0.994  0.994  0.994  0.997  0.997
     eigenvectors (columns):
      -0.000  0.000 -0.000  0.399 -0.917
      -0.350 -0.398 -0.848  0.000  0.000
      -0.553 -0.643  0.530  0.000  0.000
       0.000 -0.000  0.000  0.917  0.399
       0.756 -0.655 -0.005 -0.000 -0.000
     occupation matrix ns (before diag.):
       0.997 -0.000 -0.000 -0.000  0.000
      -0.000  0.994 -0.000  0.000  0.000
      -0.000 -0.000  0.994  0.000  0.000
      -0.000  0.000  0.000  0.997 -0.000
       0.000  0.000  0.000 -0.000  0.994
     ------------------------ ATOM    2 ------------------------
     Tr[ns(  2)] (up, down, total) =   1.65902  2.10881  3.76783
     Atomic magnetic moment for atom   2 =  -0.44979
     SPIN  1
     eigenvalues:
       0.553  0.553  0.553
     eigenvectors (columns):
       0.536 -0.528  0.658
       0.748 -0.064 -0.661
       0.391  0.847  0.361
     occupation matrix ns (before diag.):
       0.553 -0.000  0.000
      -0.000  0.553 -0.000
       0.000 -0.000  0.553
     SPIN  2
     eigenvalues:
       0.703  0.703  0.703
     eigenvectors (columns):
       0.603 -0.461  0.651
       0.769  0.119 -0.628
       0.212  0.880  0.426
     occupation matrix ns (before diag.):
       0.703 -0.000  0.000
      -0.000  0.703 -0.000
       0.000 -0.000  0.703

     Number of occupied Hubbard levels =   13.7284

     total cpu time spent up to now is        3.4 secs

     total energy              =    -188.26485455 Ry
     estimated scf accuracy    <       0.42125068 Ry

     total magnetization       =     0.00 Bohr mag/cell
     absolute magnetization    =     0.67 Bohr mag/cell

     iteration #  2     ecut=    25.00 Ry     beta= 0.30
     Davidson diagonalization with overlap
     ethr =  2.34E-03,  avg # of iterations =  1.0

     total cpu time spent up to now is        4.5 secs

     total energy              =    -188.31465787 Ry
     estimated scf accuracy    <       0.16718109 Ry

     total magnetization       =     0.00 Bohr mag/cell
     absolute magnetization    =     0.26 Bohr mag/cell

     iteration #  3     ecut=    25.00 Ry     beta= 0.30
     Davidson diagonalization with overlap
     ethr =  9.29E-04,  avg # of iterations =  1.1

     total cpu time spent up to now is        5.6 secs

     total energy              =    -188.33075193 Ry
     estimated scf accuracy    <       0.02601944 Ry

     total magnetization       =    -0.00 Bohr mag/cell
     absolute magnetization    =     0.15 Bohr mag/cell

     iteration #  4     ecut=    25.00 Ry     beta= 0.30
     Davidson diagonalization with overlap
     ethr =  1.45E-04,  avg # of iterations =  1.2

     total cpu time spent up to now is        6.7 secs

     total energy              =    -188.33259095 Ry
     estimated scf accuracy    <       0.00161993 Ry

     total magnetization       =     0.00 Bohr mag/cell
     absolute magnetization    =     0.07 Bohr mag/cell

     iteration #  5     ecut=    25.00 Ry     beta= 0.30
     Davidson diagonalization with overlap
     ethr =  9.00E-06,  avg # of iterations =  5.2

     total cpu time spent up to now is        8.0 secs

     total energy              =    -188.33277306 Ry
     estimated scf accuracy    <       0.00021504 Ry

     total magnetization       =    -0.00 Bohr mag/cell
     absolute magnetization    =     0.04 Bohr mag/cell

     iteration #  6     ecut=    25.00 Ry     beta= 0.30
     Davidson diagonalization with overlap
     ethr =  1.19E-06,  avg # of iterations =  2.9

     total cpu time spent up to now is        9.2 secs

     total energy              =    -188.33284804 Ry
     estimated scf accuracy    <       0.00001443 Ry

     total magnetization       =     0.00 Bohr mag/cell
     absolute magnetization    =     0.02 Bohr mag/cell

     iteration #  7     ecut=    25.00 Ry     beta= 0.30
     Davidson diagonalization with overlap
     ethr =  8.02E-08,  avg # of iterations =  1.9

     total cpu time spent up to now is       10.3 secs

     total energy              =    -188.33286280 Ry
     estimated scf accuracy    <       0.00000116 Ry

     total magnetization       =    -0.00 Bohr mag/cell
     absolute magnetization    =     0.00 Bohr mag/cell

     iteration #  8     ecut=    25.00 Ry     beta= 0.30
     Davidson diagonalization with overlap
     ethr =  6.44E-09,  avg # of iterations =  2.0

     total cpu time spent up to now is       11.5 secs

     total energy              =    -188.33286394 Ry
     estimated scf accuracy    <       0.00000055 Ry

     total magnetization       =     0.00 Bohr mag/cell
     absolute magnetization    =     0.00 Bohr mag/cell

     iteration #  9     ecut=    25.00 Ry     beta= 0.30
     Davidson diagonalization with overlap
     ethr =  3.06E-09,  avg # of iterations =  1.2

     total cpu time spent up to now is       12.6 secs

     total energy              =    -188.33286444 Ry
     estimated scf accuracy    <       0.00000003 Ry

     total magnetization       =    -0.00 Bohr mag/cell
     absolute magnetization    =     0.00 Bohr mag/cell

     iteration # 10     ecut=    25.00 Ry     beta= 0.30
     Davidson diagonalization with overlap
     ethr =  1.84E-10,  avg # of iterations =  1.9

     Magnetic moment per site  (integrated on atomic sphere of radius R)
     atom   1 (R=0.179)  charge= 10.7410  magn=  0.0000
     atom   2 (R=0.179)  charge=  2.2554  magn= -0.0000

     total cpu time spent up to now is       13.8 secs

     End of self-consistent calculation

     =================== HUBBARD OCCUPATIONS ===================
     ------------------------ ATOM    1 ------------------------
     Tr[ns(  1)] (up, down, total) =   4.98930  4.98930  9.97860
     Atomic magnetic moment for atom   1 =  -0.00000
     SPIN  1
     eigenvalues:
       0.997  0.997  0.997  0.999  0.999
     eigenvectors (columns):
      -0.000 -0.000  0.000 -0.335  0.942
      -0.343  0.257  0.904 -0.000 -0.000
      -0.579  0.699 -0.419 -0.000 -0.000
       0.000  0.000 -0.000 -0.942 -0.335
       0.740  0.667  0.091  0.000  0.000
     occupation matrix ns (before diag.):
       0.999 -0.000 -0.000 -0.000  0.000
      -0.000  0.997 -0.000  0.000  0.000
      -0.000 -0.000  0.997  0.000  0.000
      -0.000  0.000  0.000  0.999 -0.000
       0.000  0.000  0.000 -0.000  0.997
     SPIN  2
     eigenvalues:
       0.997  0.997  0.997  0.999  0.999
     eigenvectors (columns):
      -0.000 -0.000  0.000 -0.360  0.933
      -0.340  0.279  0.898 -0.000 -0.000
      -0.562  0.706 -0.432 -0.000 -0.000
       0.000  0.000 -0.000 -0.933 -0.360
       0.754  0.651  0.083  0.000  0.000
     occupation matrix ns (before diag.):
       0.999 -0.000 -0.000 -0.000  0.000
      -0.000  0.997 -0.000  0.000  0.000
      -0.000 -0.000  0.997  0.000  0.000
      -0.000  0.000  0.000  0.999 -0.000
       0.000  0.000  0.000 -0.000  0.997
     ------------------------ ATOM    2 ------------------------
     Tr[ns(  2)] (up, down, total) =   1.87689  1.87691  3.75380
     Atomic magnetic moment for atom   2 =  -0.00002
     SPIN  1
     eigenvalues:
       0.626  0.626  0.626
     eigenvectors (columns):
       0.495 -0.653  0.573
       0.551 -0.273 -0.789
       0.672  0.706  0.224
     occupation matrix ns (before diag.):
       0.626 -0.000  0.000
      -0.000  0.626 -0.000
       0.000 -0.000  0.626
     SPIN  2
     eigenvalues:
       0.626  0.626  0.626
     eigenvectors (columns):
       0.696 -0.407  0.592
       0.690  0.150 -0.708
       0.200  0.901  0.385
     occupation matrix ns (before diag.):
       0.626 -0.000  0.000
      -0.000  0.626 -0.000
       0.000 -0.000  0.626

     Number of occupied Hubbard levels =   13.7324

 ------ SPIN UP ------------


          k = 0.0000 0.0000 0.0000 (   459 PWs)   bands (ev):

    -6.8696  -6.8696  -6.8696  -6.6572  -6.6572  -3.9961  11.8342  11.8342
    11.8342  15.5923  15.6444  15.6444  15.6444  20.9611  23.4311  23.4311
    24.5541  24.5541  24.5541  28.4500  45.0185  45.0185  45.0185  45.3991
    45.3991  45.3991  46.2292  46.2292  46.2292  46.4264  46.4264  56.7146
    60.8511  60.8511  61.5613  61.5613

          k =-0.2500 0.2500-0.2500 (   450 PWs)   bands (ev):

    -6.8646  -6.7888  -6.7888  -6.6617  -6.6617  -2.9592   6.5799  10.7130
    10.7130  14.6841  16.8524  16.8524  19.8671  21.7717  21.7717  21.8829
    26.6380  30.4401  30.4401  33.8187  35.2822  35.2822  36.7053  46.2972
    46.4056  46.4056  47.0632  47.0632  49.2211  50.4354  50.4354  53.2994
    56.2445  56.4268  56.4269  56.9106

          k = 0.5000-0.5000 0.5000 (   434 PWs)   bands (ev):

    -6.9256  -6.6958  -6.6958  -6.5393  -6.5393  -0.9633   2.5631  10.0291
    10.0291  14.1879  16.5597  16.5597  19.8087  25.5496  26.0977  26.0977
    27.6756  27.6756  28.9946  36.1812  38.7986  38.7986  39.7279  40.0495
    40.0495  43.6501  44.1810  47.6612  47.6612  47.7517  49.1633  49.1633
    53.1041  53.1041  53.2855  53.5338

          k = 0.0000 0.5000 0.0000 (   456 PWs)   bands (ev):

    -6.9521  -6.8268  -6.8268  -6.7080  -6.6678  -2.6158   7.3997   9.0398
     9.0398  13.4116  15.6185  20.0599  20.0599  21.8662  24.6783  26.1027
    27.3761  27.3761  28.2482  35.0291  35.0291  36.1603  37.7055  38.2791
    45.8989  47.1328  47.1328  47.4497  48.2831  48.2831  51.0518  52.1379
    56.7546  57.2313  57.2314  57.5320

          k = 0.7500-0.2500 0.7500 (   447 PWs)   bands (ev):

    -6.9714  -6.7812  -6.7154  -6.6775  -6.6350  -0.5830   3.6674   6.8348
     8.5460  13.7659  17.5358  19.6890  20.0151  24.8318  26.2570  27.0512
    28.9735  29.0209  33.5246  33.9561  36.5075  37.1235  37.4591  37.5432
    41.0269  42.8915  43.0587  45.1005  46.4159  47.5008  48.8866  49.3642
    50.5089  51.8469  54.1336  55.6734

          k = 0.5000 0.0000 0.5000 (   443 PWs)   bands (ev):

    -6.9191  -6.7952  -6.7087  -6.6377  -6.5838  -1.3759   4.7877   6.4771
     9.8606  15.0679  18.3593  18.8974  19.1932  20.9352  24.6592  27.2333
    27.6106  29.6455  33.3147  35.6969  36.1875  37.1298  37.9207  40.1817
    41.0252  43.3692  43.5907  45.1357  45.8037  48.3449  49.0267  50.6314
    51.9216  55.5818  55.7206  56.3453

          k = 0.0000-1.0000 0.0000 (   444 PWs)   bands (ev):

    -7.0161  -6.7377  -6.6639  -6.6549  -6.6549   0.3708   2.8041   7.5669
     7.5669  12.5055  12.9586  25.4486  25.4486  27.0980  27.3876  28.0059
    28.0059  29.7759  30.6154  35.4325  35.4325  35.4468  35.7467  36.2529
    36.2529  36.6880  39.6990  47.8381  50.5502  50.5502  51.8215  52.8329
    52.8329  54.3863  54.5181  55.6034

          k =-0.5000-1.0000 0.0000 (   444 PWs)   bands (ev):

    -6.9221  -6.7478  -6.7249  -6.6806  -6.6130   0.5903   3.2149   6.0940
     6.3314  16.7831  18.1071  18.2528  18.6394  26.6881  27.2487  28.4585
    29.0936  31.3983  33.1263  33.1656  34.1803  37.4280  38.6879  38.8665
    41.8587  42.6611  43.0406  44.3301  44.3768  45.0201  45.4833  45.5062
    47.5571  53.8305  55.7133  55.7885

 ------ SPIN DOWN ----------


          k = 0.0000 0.0000 0.0000 (   459 PWs)   bands (ev):

    -6.8696  -6.8696  -6.8696  -6.6572  -6.6572  -3.9961  11.8342  11.8342
    11.8342  15.5924  15.6445  15.6445  15.6445  20.9610  23.4311  23.4311
    24.5541  24.5541  24.5541  28.4500  45.0185  45.0185  45.0185  45.3991
    45.3991  45.3991  46.2292  46.2292  46.2292  46.4264  46.4264  56.7146
    60.8511  60.8511  61.5614  61.5614

          k =-0.2500 0.2500-0.2500 (   450 PWs)   bands (ev):

    -6.8646  -6.7888  -6.7888  -6.6617  -6.6617  -2.9592   6.5799  10.7129
    10.7129  14.6841  16.8525  16.8525  19.8671  21.7717  21.7717  21.8829
    26.6380  30.4401  30.4401  33.8187  35.2823  35.2823  36.7053  46.2972
    46.4056  46.4056  47.0632  47.0632  49.2210  50.4354  50.4354  53.2995
    56.2445  56.4268  56.4268  56.9095

          k = 0.5000-0.5000 0.5000 (   434 PWs)   bands (ev):

    -6.9256  -6.6958  -6.6958  -6.5393  -6.5393  -0.9633   2.5631  10.0291
    10.0291  14.1879  16.5597  16.5597  19.8087  25.5495  26.0978  26.0978
    27.6756  27.6756  28.9946  36.1812  38.7987  38.7987  39.7279  40.0495
    40.0495  43.6501  44.1810  47.6612  47.6612  47.7518  49.1633  49.1633
    53.1041  53.1041  53.2855  53.5338

          k = 0.0000 0.5000 0.0000 (   456 PWs)   bands (ev):

    -6.9521  -6.8267  -6.8267  -6.7079  -6.6678  -2.6158   7.3997   9.0398
     9.0398  13.4116  15.6185  20.0599  20.0599  21.8662  24.6783  26.1027
    27.3761  27.3761  28.2482  35.0291  35.0291  36.1604  37.7055  38.2791
    45.8989  47.1329  47.1329  47.4497  48.2831  48.2831  51.0517  52.1379
    56.7546  57.2312  57.2313  57.5320

          k = 0.7500-0.2500 0.7500 (   447 PWs)   bands (ev):

    -6.9714  -6.7812  -6.7154  -6.6775  -6.6350  -0.5830   3.6674   6.8348
     8.5460  13.7659  17.5358  19.6890  20.0152  24.8319  26.2570  27.0512
    28.9735  29.0209  33.5246  33.9561  36.5075  37.1235  37.4592  37.5432
    41.0269  42.8915  43.0587  45.1005  46.4159  47.5008  48.8866  49.3642
    50.5090  51.8469  54.1336  55.6734

          k = 0.5000 0.0000 0.5000 (   443 PWs)   bands (ev):

    -6.9191  -6.7951  -6.7086  -6.6377  -6.5838  -1.3759   4.7877   6.4771
     9.8606  15.0679  18.3594  18.8973  19.1932  20.9351  24.6592  27.2334
    27.6106  29.6455  33.3147  35.6969  36.1875  37.1298  37.9208  40.1817
    41.0252  43.3692  43.5908  45.1357  45.8037  48.3449  49.0267  50.6314
    51.9216  55.5819  55.7207  56.3452

          k = 0.0000-1.0000 0.0000 (   444 PWs)   bands (ev):

    -7.0161  -6.7377  -6.6639  -6.6549  -6.6549   0.3708   2.8041   7.5669
     7.5669  12.5056  12.9585  25.4486  25.4486  27.0980  27.3876  28.0059
    28.0059  29.7760  30.6154  35.4325  35.4325  35.4468  35.7467  36.2530
    36.2530  36.6879  39.6990  47.8381  50.5503  50.5503  51.8215  52.8329
    52.8329  54.3863  54.5181  55.6035

          k =-0.5000-1.0000 0.0000 (   444 PWs)   bands (ev):

    -6.9221  -6.7478  -6.7249  -6.6806  -6.6130   0.5902   3.2150   6.0939
     6.3314  16.7831  18.1070  18.2527  18.6395  26.6882  27.2487  28.4585
    29.0936  31.3984  33.1263  33.1655  34.1803  37.4280  38.6879  38.8665
    41.8588  42.6611  43.0406  44.3301  44.3768  45.0201  45.4833  45.5062
    47.5571  53.8305  55.7157  55.8029

     highest occupied, lowest unoccupied level (ev):    11.8342   12.5055

!    total energy              =    -188.33286451 Ry
     estimated scf accuracy    <          9.5E-11 Ry

     The total energy is the sum of the following terms:
     one-electron contribution =     -97.63193171 Ry
     hartree contribution      =      66.75257221 Ry
     xc contribution           =     -52.44019062 Ry
     ewald contribution        =    -105.17059866 Ry
     Hubbard energy            =       0.15728427 Ry

     total magnetization       =    -0.00 Bohr mag/cell
     absolute magnetization    =     0.00 Bohr mag/cell

     convergence has been achieved in  10 iterations
     force_hub    :      0.21s CPU      0.21s WALL (       1 calls)
     dndtau       :      0.17s CPU      0.17s WALL (      96 calls)
     dprojdtau    :      0.03s CPU      0.03s WALL (     192 calls)
     calc_doverla :      0.06s CPU      0.06s WALL (      96 calls)
     matel_dSdtau :      0.13s CPU      0.13s WALL (     192 calls)

     Forces acting on atoms (cartesian axes, Ry/au):

     atom    1 type  1   force =     0.00000000    0.00000000   -0.00000000
     atom    2 type  2   force =     0.00000000    0.00000000    0.00000000

     Total force =     0.000000     Total SCF correction =     0.000000

     Writing all to output data dir ./outdir/GaAs.save/ :
     XML data file, charge density, pseudopotentials, collected wavefunctions

     init_run     :      1.27s CPU      1.32s WALL (       1 calls)
     electrons    :     11.71s CPU     12.32s WALL (       1 calls)
     forces       :      0.52s CPU      0.54s WALL (       1 calls)

     Called by init_run:
     wfcinit      :      0.25s CPU      0.25s WALL (       1 calls)
     potinit      :      0.17s CPU      0.18s WALL (       1 calls)
     hinit0       :      0.73s CPU      0.74s WALL (       1 calls)

     Called by electrons:
     c_bands      :      6.89s CPU      6.96s WALL (      10 calls)
     sum_band     :      2.65s CPU      2.97s WALL (      10 calls)
     v_of_rho     :      1.13s CPU      1.14s WALL (      11 calls)
     newd         :      1.11s CPU      1.35s WALL (      11 calls)
     mix_rho      :      0.08s CPU      0.08s WALL (      10 calls)

     Called by c_bands:
     init_us_2    :      0.07s CPU      0.07s WALL (     384 calls)
     cegterg      :      6.81s CPU      6.88s WALL (     160 calls)

     Called by *egterg:
     cdiaghg      :      0.91s CPU      0.92s WALL (     567 calls)
     h_psi        :      3.81s CPU      3.86s WALL (     583 calls)
     s_psi        :      0.22s CPU      0.22s WALL (     631 calls)
     g_psi        :      0.04s CPU      0.04s WALL (     407 calls)

     Called by h_psi:
     h_psi:calbec :      0.24s CPU      0.25s WALL (     583 calls)
     vloc_psi     :      3.21s CPU      3.26s WALL (     583 calls)
                                        0.00s GPU  (     583 calls)
     add_vuspsi   :      0.20s CPU      0.21s WALL (     583 calls)
     vhpsi        :      0.14s CPU      0.14s WALL (     583 calls)

     General routines
     calbec       :      0.63s CPU      0.64s WALL (    2382 calls)
     fft          :      0.49s CPU      0.49s WALL (     288 calls)
     ffts         :      0.01s CPU      0.01s WALL (      42 calls)
     fftw         :      3.36s CPU      3.41s WALL (   33046 calls)
     interpolate  :      0.05s CPU      0.05s WALL (      22 calls)


     Hubbard U routines
     new_ns       :      0.04s CPU      0.04s WALL (      10 calls)
     vhpsi        :      0.14s CPU      0.14s WALL (     583 calls)
     force_hub    :      0.21s CPU      0.21s WALL (       1 calls)

     PWSCF        :     13.62s CPU     14.33s WALL


   This run was terminated on:  19:49:41   9Dec2025            

=------------------------------------------------------------------------------=
   JOB DONE.
=------------------------------------------------------------------------------=
