
     Program PWSCF v.7.5 starts on 10Dec2025 at  0:12: 6 

     This program is part of the open-source Quantum ESPRESSO suite
     for quantum simulation of materials; please cite
         "P. Giannozzi et al., J. Phys.:Condens. Matter 21 395502 (2009);
         "P. Giannozzi et al., J. Phys.:Condens. Matter 29 465901 (2017);
         "P. Giannozzi et al., J. Chem. Phys. 152 154105 (2020);
          URL http://www.quantum-espresso.org", 
     in publications or presentations arising from this work. More details at
     http://www.quantum-espresso.org/quote

     Serial version
     20868 MiB available memory on the printing compute node when the environment starts

     Reading input from GaAs.scf.in

     Current dimensions of program PWSCF are:
     Max number of different atomic species (ntypx) = 10
     Max number of k-points (npk) =  40000
     Max angular momentum in pseudopotentials (lmaxx) =  4
     file Ga.pbesol-dnl-rrkjus_psl.1.0.0.UPF: wavefunction(s)  3D renormalized


     G-vector sticks info
     --------------------
     sticks:   dense  smooth     PW     G-vecs:    dense   smooth      PW
     Sum        1573     769    241                41151    14361    2421

     Using Slab Decomposition



     bravais-lattice index     =            2
     lattice parameter (alat)  =      10.6890  a.u.
     unit-cell volume          =     305.3201 (a.u.)^3
     number of atoms/cell      =            2
     number of atomic types    =            2
     number of electrons       =        18.00
     number of Kohn-Sham states=           36
     kinetic-energy cutoff     =      50.0000  Ry
     charge density cutoff     =     400.0000  Ry
     scf convergence threshold =      1.0E-09
     mixing beta               =       0.3000
     number of iterations used =            8  plain     mixing
     Exchange-correlation= PBESOL
                           (   1   4  10   8   0   0   0)

     celldm(1)=  10.689034  celldm(2)=   0.000000  celldm(3)=   0.000000
     celldm(4)=   0.000000  celldm(5)=   0.000000  celldm(6)=   0.000000

     crystal axes: (cart. coord. in units of alat)
               a(1) = (  -0.500000   0.000000   0.500000 )  
               a(2) = (   0.000000   0.500000   0.500000 )  
               a(3) = (  -0.500000   0.500000   0.000000 )  

     reciprocal axes: (cart. coord. in units 2 pi/alat)
               b(1) = ( -1.000000 -1.000000  1.000000 )  
               b(2) = (  1.000000  1.000000  1.000000 )  
               b(3) = ( -1.000000  1.000000 -1.000000 )  


     PseudoPot. # 1 for Ga read from file:
     /home/kirill/Desktop/src/q-e-pseudos/Ga.pbesol-dnl-rrkjus_psl.1.0.0.UPF
     MD5 check sum: af75e18138b17f4c63d92c4186babeee
     Pseudo is Ultrasoft + core correction, Zval = 13.0
     Generated using &quot;atomic&quot; code by A. Dal Corso  v.6.3
     Using radial grid of 1205 points,  6 beta functions with: 
                l(1) =   0
                l(2) =   0
                l(3) =   1
                l(4) =   1
                l(5) =   2
                l(6) =   2
     Q(r) pseudized with 0 coefficients 


     PseudoPot. # 2 for As read from file:
     /home/kirill/Desktop/src/q-e-pseudos/As.pbesol-n-rrkjus_psl.0.2.UPF
     MD5 check sum: aea6fa71b557bb134146747eb310c298
     Pseudo is Ultrasoft + core correction, Zval =  5.0
     Generated using "atomic" code by A. Dal Corso  v.5.0.2 svn rev. 9415
     Using radial grid of 1209 points,  4 beta functions with: 
                l(1) =   0
                l(2) =   0
                l(3) =   1
                l(4) =   1
     Q(r) pseudized with 0 coefficients 


     atomic species   valence    mass     pseudopotential
     Ga               13.00    69.72300     Ga( 1.00)
     As                5.00    74.92159     As( 1.00)

     24 Sym. Ops. (no inversion) found



   Cartesian axes

     site n.     atom                  positions (alat units)
         1        Ga     tau(   1) = (   0.0000000   0.0000000   0.0000000  )
         2        As     tau(   2) = (  -0.2500000   0.2500000   0.2500000  )

     number of k points=     8
                       cart. coord. in units 2pi/alat
        k(    1) = (   0.0000000   0.0000000   0.0000000), wk =   0.0312500
        k(    2) = (  -0.2500000   0.2500000  -0.2500000), wk =   0.2500000
        k(    3) = (   0.5000000  -0.5000000   0.5000000), wk =   0.1250000
        k(    4) = (   0.0000000   0.5000000   0.0000000), wk =   0.1875000
        k(    5) = (   0.7500000  -0.2500000   0.7500000), wk =   0.7500000
        k(    6) = (   0.5000000   0.0000000   0.5000000), wk =   0.3750000
        k(    7) = (   0.0000000  -1.0000000   0.0000000), wk =   0.0937500
        k(    8) = (  -0.5000000  -1.0000000   0.0000000), wk =   0.1875000

     Dense  grid:    41151 G-vectors     FFT dimensions: (  50,  50,  50)

     Smooth grid:    14361 G-vectors     FFT dimensions: (  36,  36,  36)

     Estimated max dynamical RAM per process >     157.11 MB

     Initial potential from superposition of free atoms

     starting charge      17.9971, renormalised to      18.0000
     Starting wfcs are   13 randomized atomic wfcs +   23 random wfcs

     total cpu time spent up to now is        1.7 secs

     Self-consistent Calculation

     iteration #  1     ecut=    50.00 Ry     beta= 0.30
     Davidson diagonalization with overlap
     ethr =  1.00E-02,  avg # of iterations =  7.2

     Threshold (ethr) on eigenvalues was too large:
     Diagonalizing with lowered threshold

     Davidson diagonalization with overlap
     ethr =  3.01E-04,  avg # of iterations =  1.9

     total cpu time spent up to now is        6.2 secs

     total energy              =    -188.98271232 Ry
     estimated scf accuracy    <       0.05399770 Ry

     iteration #  2     ecut=    50.00 Ry     beta= 0.30
     Davidson diagonalization with overlap
     ethr =  3.00E-04,  avg # of iterations =  1.0

     total cpu time spent up to now is        7.7 secs

     total energy              =    -188.98221806 Ry
     estimated scf accuracy    <       0.01442312 Ry

     iteration #  3     ecut=    50.00 Ry     beta= 0.30
     Davidson diagonalization with overlap
     ethr =  8.01E-05,  avg # of iterations =  1.5

     total cpu time spent up to now is        9.3 secs

     total energy              =    -188.98245979 Ry
     estimated scf accuracy    <       0.00254381 Ry

     iteration #  4     ecut=    50.00 Ry     beta= 0.30
     Davidson diagonalization with overlap
     ethr =  1.41E-05,  avg # of iterations =  3.8

     total cpu time spent up to now is       10.9 secs

     total energy              =    -188.98252834 Ry
     estimated scf accuracy    <       0.00008045 Ry

     iteration #  5     ecut=    50.00 Ry     beta= 0.30
     Davidson diagonalization with overlap
     ethr =  4.47E-07,  avg # of iterations =  3.9

     total cpu time spent up to now is       12.7 secs

     total energy              =    -188.98253749 Ry
     estimated scf accuracy    <       0.00000305 Ry

     iteration #  6     ecut=    50.00 Ry     beta= 0.30
     Davidson diagonalization with overlap
     ethr =  1.69E-08,  avg # of iterations =  1.9

     total cpu time spent up to now is       14.3 secs

     total energy              =    -188.98253800 Ry
     estimated scf accuracy    <       0.00000022 Ry

     iteration #  7     ecut=    50.00 Ry     beta= 0.30
     Davidson diagonalization with overlap
     ethr =  1.22E-09,  avg # of iterations =  2.2

     total cpu time spent up to now is       16.0 secs

     total energy              =    -188.98253804 Ry
     estimated scf accuracy    <       0.00000006 Ry

     iteration #  8     ecut=    50.00 Ry     beta= 0.30
     Davidson diagonalization with overlap
     ethr =  3.09E-10,  avg # of iterations =  1.2

     total cpu time spent up to now is       17.5 secs

     End of self-consistent calculation

          k = 0.0000 0.0000 0.0000 (  1837 PWs)   bands (ev):

    -8.1986  -8.1986  -8.1986  -8.1201  -8.1201  -6.1246   6.6194   6.6194
     6.6194   7.0512  10.2766  10.2766  10.2766  14.0682  16.7229  16.7229
    18.1236  18.1236  18.1236  20.9077  32.1203  32.1203  32.1203  33.1320
    33.1320  33.1320  34.3961  34.3961  34.5022  34.5022  34.5022  41.4668
    46.0560  46.0561  46.0561  46.2655

          k =-0.2500 0.2500-0.2500 (  1847 PWs)   bands (ev):

    -8.2404  -8.1873  -8.1873  -8.1198  -8.1198  -5.4300   2.4378   5.9337
     5.9337   7.9787  11.1487  11.1487  12.4911  15.4633  15.5909  15.5909
    18.4652  22.3851  22.3851  25.0826  25.5774  25.5774  25.7590  33.5143
    33.5143  34.3067  34.3067  35.1801  36.1685  37.9275  38.0382  38.0382
    42.0256  42.0258  42.7010  42.7106

          k = 0.5000-0.5000 0.5000 (  1802 PWs)   bands (ev):

    -8.2756  -8.1790  -8.1790  -8.1153  -8.1153  -4.3488  -0.0749   5.4701
     5.4701   7.5157  11.1669  11.1669  14.2366  16.9207  18.5171  18.5171
    19.0348  19.7791  19.7791  26.0727  28.2332  28.9645  28.9645  29.6598
    29.6598  32.7475  33.2163  34.6358  34.6358  35.3264  35.3264  36.2474
    39.4625  39.4626  39.9470  40.2299

          k = 0.0000 0.5000 0.0000 (  1828 PWs)   bands (ev):

    -8.2607  -8.1742  -8.1742  -8.1321  -8.1129  -5.1939   2.4927   4.9088
     4.9088   8.4857   9.7970  13.1843  13.1843  13.9564  17.7667  17.9461
    20.2986  20.2986  20.8595  24.9944  24.9944  26.6726  26.7962  27.9827
    33.9410  34.4580  34.4580  35.0911  36.1608  36.1608  37.3863  38.2084
    42.2610  42.7694  42.7694  42.9150

          k = 0.7500-0.2500 0.7500 (  1821 PWs)   bands (ev):

    -8.2873  -8.1682  -8.1627  -8.1309  -8.1121  -4.0583   0.2995   3.3376
     4.5610   8.7050  11.2496  12.7552  13.5176  16.9196  18.6614  19.1485
    19.6632  20.7396  24.2430  25.2302  25.9221  27.1494  27.3536  27.5915
    29.4533  31.7709  32.1497  33.1209  34.4713  35.3505  36.1808  36.4160
    37.5391  38.5363  40.4203  41.7491

          k = 0.5000 0.0000 0.5000 (  1829 PWs)   bands (ev):

    -8.2726  -8.1754  -8.1730  -8.1218  -8.1193  -4.4763   0.9320   3.2057
     5.3875   9.2626  12.1531  12.2239  12.3619  14.9372  16.9097  19.2518
    19.9060  20.9463  24.1207  25.1200  26.0962  26.8782  28.3075  28.9657
    30.3963  31.9199  32.6548  33.5165  33.7689  35.2243  36.1374  37.6940
    38.1890  41.8182  42.1550  42.1971

          k = 0.0000-1.0000 0.0000 (  1772 PWs)   bands (ev):

    -8.3071  -8.1483  -8.1483  -8.1455  -8.1052  -3.6024  -0.2497   3.9192
     3.9192   7.9321   8.1541  16.7523  16.7523  17.5004  19.8361  20.0186
    20.0186  20.1500  22.1816  26.0324  26.4908  26.4908  26.6140  26.6523
    26.8438  26.8438  28.2868  35.2925  36.4835  36.4835  37.7015  39.5440
    39.5440  40.5835  40.7014  41.4481

          k =-0.5000-1.0000 0.0000 (  1800 PWs)   bands (ev):

    -8.2939  -8.1677  -8.1529  -8.1307  -8.1147  -3.5420  -0.0634   3.0410
     3.2233  11.1913  11.2284  11.9541  12.5477  17.6370  18.8422  19.9033
    20.3610  23.3769  24.3987  24.4230  24.9985  26.2795  27.7620  28.1879
    29.8547  31.1680  31.4577  33.2675  33.3807  33.5971  33.8483  34.1962
    34.9106  40.8077  41.6888  41.8796

     highest occupied, lowest unoccupied level (ev):     6.6194    7.0512

!    total energy              =    -188.98253805 Ry
     estimated scf accuracy    <          5.1E-10 Ry

     The total energy is the sum of the following terms:
     one-electron contribution =    -118.68415029 Ry
     hartree contribution      =      74.93205389 Ry
     xc contribution           =     -52.26461220 Ry
     ewald contribution        =     -92.96582945 Ry

     convergence has been achieved in   8 iterations

     Writing all to output data dir ./outdir/GaAs.save/ :
     XML data file, charge density, pseudopotentials, collected wavefunctions

     init_run     :      1.47s CPU      1.54s WALL (       1 calls)
     electrons    :     15.08s CPU     15.85s WALL (       1 calls)

     Called by init_run:
     wfcinit      :      0.42s CPU      0.43s WALL (       1 calls)
     potinit      :      0.13s CPU      0.14s WALL (       1 calls)
     hinit0       :      0.79s CPU      0.79s WALL (       1 calls)

     Called by electrons:
     c_bands      :     10.86s CPU     10.93s WALL (       9 calls)
     sum_band     :      2.69s CPU      3.09s WALL (       9 calls)
     v_of_rho     :      0.54s CPU      0.55s WALL (       9 calls)
     newd         :      1.08s CPU      1.42s WALL (       9 calls)
     mix_rho      :      0.05s CPU      0.05s WALL (       9 calls)

     Called by c_bands:
     init_us_2    :      0.11s CPU      0.11s WALL (     152 calls)
     cegterg      :     10.73s CPU     10.80s WALL (      72 calls)

     Called by *egterg:
     cdiaghg      :      0.44s CPU      0.44s WALL (     261 calls)
     h_psi        :      6.40s CPU      6.46s WALL (     277 calls)
     s_psi        :      0.37s CPU      0.37s WALL (     277 calls)
     g_psi        :      0.07s CPU      0.07s WALL (     197 calls)

     Called by h_psi:
     h_psi:calbec :      0.46s CPU      0.46s WALL (     277 calls)
     vloc_psi     :      5.56s CPU      5.61s WALL (     277 calls)
                                        0.00s GPU  (     277 calls)
     add_vuspsi   :      0.37s CPU      0.37s WALL (     277 calls)

     General routines
     calbec       :      0.64s CPU      0.65s WALL (     349 calls)
     fft          :      0.30s CPU      0.30s WALL (     116 calls)
     ffts         :      0.01s CPU      0.01s WALL (      18 calls)
     fftw         :      5.81s CPU      5.86s WALL (   15134 calls)
     interpolate  :      0.03s CPU      0.03s WALL (       9 calls)


     PWSCF        :     16.67s CPU     17.54s WALL


   This run was terminated on:   0:12:23  10Dec2025            

=------------------------------------------------------------------------------=
   JOB DONE.
=------------------------------------------------------------------------------=
