
     Program PWSCF v.7.5 starts on 10Dec2025 at  0:12:23 

     This program is part of the open-source Quantum ESPRESSO suite
     for quantum simulation of materials; please cite
         "P. Giannozzi et al., J. Phys.:Condens. Matter 21 395502 (2009);
         "P. Giannozzi et al., J. Phys.:Condens. Matter 29 465901 (2017);
         "P. Giannozzi et al., J. Chem. Phys. 152 154105 (2020);
          URL http://www.quantum-espresso.org", 
     in publications or presentations arising from this work. More details at
     http://www.quantum-espresso.org/quote

     Serial version
     20430 MiB available memory on the printing compute node when the environment starts

     Reading input from GaAs.nscf.in

     Current dimensions of program PWSCF are:
     Max number of different atomic species (ntypx) = 10
     Max number of k-points (npk) =  40000
     Max angular momentum in pseudopotentials (lmaxx) =  4
     file Ga.pbesol-dnl-rrkjus_psl.1.0.0.UPF: wavefunction(s)  3D renormalized

     Atomic positions and unit cell read from directory:
     ./outdir/GaAs.save/



     G-vector sticks info
     --------------------
     sticks:   dense  smooth     PW     G-vecs:    dense   smooth      PW
     Sum        1573     769    241                41151    14361    2445

     Using Slab Decomposition



     bravais-lattice index     =            2
     lattice parameter (alat)  =      10.6890  a.u.
     unit-cell volume          =     305.3201 (a.u.)^3
     number of atoms/cell      =            2
     number of atomic types    =            2
     number of electrons       =        18.00
     number of Kohn-Sham states=           36
     kinetic-energy cutoff     =      50.0000  Ry
     charge density cutoff     =     400.0000  Ry
     Exchange-correlation= PBESOL
                           (   1   4  10   8   0   0   0)

     celldm(1)=  10.689034  celldm(2)=   0.000000  celldm(3)=   0.000000
     celldm(4)=   0.000000  celldm(5)=   0.000000  celldm(6)=   0.000000

     crystal axes: (cart. coord. in units of alat)
               a(1) = (  -0.500000   0.000000   0.500000 )  
               a(2) = (   0.000000   0.500000   0.500000 )  
               a(3) = (  -0.500000   0.500000   0.000000 )  

     reciprocal axes: (cart. coord. in units 2 pi/alat)
               b(1) = ( -1.000000 -1.000000  1.000000 )  
               b(2) = (  1.000000  1.000000  1.000000 )  
               b(3) = ( -1.000000  1.000000 -1.000000 )  


     PseudoPot. # 1 for Ga read from file:
     /home/kirill/Desktop/src/q-e-pseudos/Ga.pbesol-dnl-rrkjus_psl.1.0.0.UPF
     MD5 check sum: af75e18138b17f4c63d92c4186babeee
     Pseudo is Ultrasoft + core correction, Zval = 13.0
     Generated using &quot;atomic&quot; code by A. Dal Corso  v.6.3
     Using radial grid of 1205 points,  6 beta functions with: 
                l(1) =   0
                l(2) =   0
                l(3) =   1
                l(4) =   1
                l(5) =   2
                l(6) =   2
     Q(r) pseudized with 0 coefficients 


     PseudoPot. # 2 for As read from file:
     /home/kirill/Desktop/src/q-e-pseudos/As.pbesol-n-rrkjus_psl.0.2.UPF
     MD5 check sum: aea6fa71b557bb134146747eb310c298
     Pseudo is Ultrasoft + core correction, Zval =  5.0
     Generated using "atomic" code by A. Dal Corso  v.5.0.2 svn rev. 9415
     Using radial grid of 1209 points,  4 beta functions with: 
                l(1) =   0
                l(2) =   0
                l(3) =   1
                l(4) =   1
     Q(r) pseudized with 0 coefficients 


     atomic species   valence    mass     pseudopotential
     Ga               13.00    69.72300     Ga( 1.00)
     As                5.00    74.92159     As( 1.00)

     24 Sym. Ops. (no inversion) found



   Cartesian axes

     site n.     atom                  positions (alat units)
         1        Ga     tau(   1) = (   0.0000000   0.0000000   0.0000000  )
         2        As     tau(   2) = (  -0.2500000   0.2500000   0.2500000  )

     number of k points=    72 (tetrahedron method)
                       cart. coord. in units 2pi/alat
        k(    1) = (   0.0000000   0.0000000   0.0000000), wk =   0.0011574
        k(    2) = (  -0.0833333   0.0833333  -0.0833333), wk =   0.0092593
        k(    3) = (  -0.1666667   0.1666667  -0.1666667), wk =   0.0092593
        k(    4) = (  -0.2500000   0.2500000  -0.2500000), wk =   0.0092593
        k(    5) = (  -0.3333333   0.3333333  -0.3333333), wk =   0.0092593
        k(    6) = (  -0.4166667   0.4166667  -0.4166667), wk =   0.0092593
        k(    7) = (   0.5000000  -0.5000000   0.5000000), wk =   0.0046296
        k(    8) = (   0.0000000   0.1666667   0.0000000), wk =   0.0069444
        k(    9) = (  -0.0833333   0.2500000  -0.0833333), wk =   0.0277778
        k(   10) = (  -0.1666667   0.3333333  -0.1666667), wk =   0.0277778
        k(   11) = (  -0.2500000   0.4166667  -0.2500000), wk =   0.0277778
        k(   12) = (  -0.3333333   0.5000000  -0.3333333), wk =   0.0277778
        k(   13) = (   0.5833333  -0.4166667   0.5833333), wk =   0.0277778
        k(   14) = (   0.5000000  -0.3333333   0.5000000), wk =   0.0277778
        k(   15) = (   0.4166667  -0.2500000   0.4166667), wk =   0.0277778
        k(   16) = (   0.3333333  -0.1666667   0.3333333), wk =   0.0277778
        k(   17) = (   0.2500000  -0.0833333   0.2500000), wk =   0.0277778
        k(   18) = (   0.1666667  -0.0000000   0.1666667), wk =   0.0138889
        k(   19) = (   0.0000000   0.3333333   0.0000000), wk =   0.0069444
        k(   20) = (  -0.0833333   0.4166667  -0.0833333), wk =   0.0277778
        k(   21) = (  -0.1666667   0.5000000  -0.1666667), wk =   0.0277778
        k(   22) = (  -0.2500000   0.5833333  -0.2500000), wk =   0.0277778
        k(   23) = (   0.6666667  -0.3333333   0.6666667), wk =   0.0277778
        k(   24) = (   0.5833333  -0.2500000   0.5833333), wk =   0.0277778
        k(   25) = (   0.5000000  -0.1666667   0.5000000), wk =   0.0277778
        k(   26) = (   0.4166667  -0.0833333   0.4166667), wk =   0.0277778
        k(   27) = (   0.3333333   0.0000000   0.3333333), wk =   0.0138889
        k(   28) = (   0.0000000   0.5000000   0.0000000), wk =   0.0069444
        k(   29) = (  -0.0833333   0.5833333  -0.0833333), wk =   0.0277778
        k(   30) = (  -0.1666667   0.6666667  -0.1666667), wk =   0.0277778
        k(   31) = (   0.7500000  -0.2500000   0.7500000), wk =   0.0277778
        k(   32) = (   0.6666667  -0.1666667   0.6666667), wk =   0.0277778
        k(   33) = (   0.5833333  -0.0833333   0.5833333), wk =   0.0277778
        k(   34) = (   0.5000000   0.0000000   0.5000000), wk =   0.0138889
        k(   35) = (   0.0000000   0.6666667   0.0000000), wk =   0.0069444
        k(   36) = (  -0.0833333   0.7500000  -0.0833333), wk =   0.0277778
        k(   37) = (   0.8333333  -0.1666667   0.8333333), wk =   0.0277778
        k(   38) = (   0.7500000  -0.0833333   0.7500000), wk =   0.0277778
        k(   39) = (   0.6666667   0.0000000   0.6666667), wk =   0.0138889
        k(   40) = (   0.0000000   0.8333333   0.0000000), wk =   0.0069444
        k(   41) = (   0.9166667  -0.0833333   0.9166667), wk =   0.0277778
        k(   42) = (   0.8333333   0.0000000   0.8333333), wk =   0.0138889
        k(   43) = (   0.0000000  -1.0000000   0.0000000), wk =   0.0034722
        k(   44) = (  -0.1666667   0.3333333   0.0000000), wk =   0.0277778
        k(   45) = (  -0.2500000   0.4166667  -0.0833333), wk =   0.0555556
        k(   46) = (  -0.3333333   0.5000000  -0.1666667), wk =   0.0555556
        k(   47) = (   0.5833333  -0.4166667   0.7500000), wk =   0.0555556
        k(   48) = (   0.5000000  -0.3333333   0.6666667), wk =   0.0277778
        k(   49) = (  -0.1666667   0.5000000   0.0000000), wk =   0.0277778
        k(   50) = (  -0.2500000   0.5833333  -0.0833333), wk =   0.0555556
        k(   51) = (   0.6666667  -0.3333333   0.8333333), wk =   0.0555556
        k(   52) = (   0.5833333  -0.2500000   0.7500000), wk =   0.0555556
        k(   53) = (   0.5000000  -0.1666667   0.6666667), wk =   0.0555556
        k(   54) = (   0.4166667  -0.0833333   0.5833333), wk =   0.0555556
        k(   55) = (   0.3333333   0.0000000   0.5000000), wk =   0.0277778
        k(   56) = (  -0.1666667   0.6666667  -0.0000000), wk =   0.0277778
        k(   57) = (   0.7500000  -0.2500000   0.9166667), wk =   0.0555556
        k(   58) = (   0.6666667  -0.1666667   0.8333333), wk =   0.0555556
        k(   59) = (   0.5833333  -0.0833333   0.7500000), wk =   0.0555556
        k(   60) = (   0.5000000   0.0000000   0.6666667), wk =   0.0277778
        k(   61) = (   0.8333333  -0.1666667   1.0000000), wk =   0.0277778
        k(   62) = (   0.7500000  -0.0833333   0.9166667), wk =   0.0555556
        k(   63) = (   0.6666667   0.0000000   0.8333333), wk =   0.0277778
        k(   64) = (  -0.1666667  -1.0000000   0.0000000), wk =   0.0138889
        k(   65) = (   0.6666667  -0.3333333   1.0000000), wk =   0.0277778
        k(   66) = (   0.5833333  -0.2500000   0.9166667), wk =   0.0555556
        k(   67) = (   0.5000000  -0.1666667   0.8333333), wk =   0.0277778
        k(   68) = (   0.6666667  -0.1666667   1.0000000), wk =   0.0277778
        k(   69) = (   0.5833333  -0.0833333   0.9166667), wk =   0.0555556
        k(   70) = (   0.5000000   0.0000000   0.8333333), wk =   0.0277778
        k(   71) = (  -0.3333333  -1.0000000   0.0000000), wk =   0.0138889
        k(   72) = (  -0.5000000  -1.0000000   0.0000000), wk =   0.0069444

     Dense  grid:    41151 G-vectors     FFT dimensions: (  50,  50,  50)

     Smooth grid:    14361 G-vectors     FFT dimensions: (  36,  36,  36)

     Estimated max dynamical RAM per process >     137.47 MB

     The potential is recalculated from file :
     ./outdir/GaAs.save/charge-density

     Starting wfcs are   13 randomized atomic wfcs +   23 random wfcs

     Band Structure Calculation
     Davidson diagonalization with overlap

     ethr =  5.56E-12,  avg # of iterations = 39.6

     total cpu time spent up to now is      131.1 secs

     End of band structure calculation

          k = 0.0000 0.0000 0.0000 (  1837 PWs)   bands (ev):

    -8.1990  -8.1990  -8.1990  -8.1205  -8.1205  -6.1246   6.6193   6.6193
     6.6193   7.0511  10.2766  10.2766  10.2766  14.0682  16.7229  16.7229
    18.1236  18.1236  18.1236  20.9078  32.1203  32.1203  32.1203  33.1320
    33.1320  33.1320  34.3961  34.3961  34.5022  34.5022  34.5022  41.4669
    46.0560  46.0560  46.0560  46.2654

          k =-0.0833 0.0833-0.0833 (  1841 PWs)   bands (ev):

    -8.2051  -8.1974  -8.1974  -8.1207  -8.1207  -6.0426   5.3726   6.5037
     6.5037   7.9170  10.4292  10.4488  10.4488  14.5474  16.1653  16.1653
    17.6964  18.9962  18.9962  21.6529  30.2214  30.5743  30.5743  32.9619
    32.9619  33.8788  33.8788  34.5815  34.7426  37.0357  37.0357  41.6517
    43.8622  44.2146  44.2146  45.3739

          k =-0.1667 0.1667-0.1667 (  1820 PWs)   bands (ev):

    -8.2205  -8.1928  -8.1928  -8.1206  -8.1206  -5.8034   3.8689   6.2332
     6.2332   8.1754  10.8319  10.8319  11.2230  15.4518  15.6044  15.6044
    17.3475  20.5562  20.5562  23.2386  27.8587  28.0320  28.0320  33.1564
    33.1564  34.0326  34.0326  34.8139  36.2032  39.8799  39.8799  40.0206
    41.5249  41.5249  43.2570  43.7737

          k =-0.2500 0.2500-0.2500 (  1847 PWs)   bands (ev):

    -8.2408  -8.1876  -8.1876  -8.1202  -8.1202  -5.4300   2.4377   5.9336
     5.9336   7.9786  11.1487  11.1487  12.4910  15.4633  15.5909  15.5909
    18.4653  22.3851  22.3851  25.0826  25.5773  25.5773  25.7590  33.5143
    33.5143  34.3067  34.3067  35.1801  36.1685  37.9275  38.0382  38.0382
    42.0255  42.0255  42.7008  42.7008

          k =-0.3333 0.3333-0.3333 (  1853 PWs)   bands (ev):

    -8.2593  -8.1832  -8.1832  -8.1188  -8.1188  -4.9722   1.1934   5.6848
     5.6848   7.7371  11.2388  11.2388  13.7699  15.2612  16.2496  16.2496
    20.0237  23.1369  23.1369  23.9607  24.6050  24.6050  27.5025  33.3893
    33.8655  33.8655  34.4032  34.4032  35.4393  35.4393  35.6319  37.9166
    40.0752  40.7704  40.7704  41.4554

          k =-0.4167 0.4167-0.4167 (  1838 PWs)   bands (ev):

    -8.2716  -8.1805  -8.1805  -8.1169  -8.1169  -4.5417   0.2804   5.5249
     5.5249   7.5726  11.1974  11.1974  14.2439  16.0290  17.4277  17.4277
    19.8905  21.1413  21.1413  24.5515  26.8144  26.8144  29.5086  30.9556
    31.9614  31.9614  34.4612  34.4612  35.2096  35.2096  35.8298  36.0574
    39.6786  39.8249  39.8249  40.5619

          k = 0.5000-0.5000 0.5000 (  1802 PWs)   bands (ev):

    -8.2760  -8.1793  -8.1793  -8.1157  -8.1157  -4.3489  -0.0749   5.4701
     5.4701   7.5157  11.1669  11.1669  14.2366  16.9207  18.5171  18.5171
    19.0347  19.7791  19.7791  26.0727  28.2332  28.9645  28.9645  29.6598
    29.6598  32.7475  33.2163  34.6357  34.6357  35.3264  35.3264  36.2474
    39.4625  39.4625  39.9470  40.2299

          k = 0.0000 0.1667 0.0000 (  1840 PWs)   bands (ev):

    -8.2087  -8.1958  -8.1958  -8.1221  -8.1195  -6.0153   5.3209   6.2795
     6.2795   8.3188   9.9089  10.7532  10.7532  14.6802  15.4022  16.8395
    18.3635  18.3635  18.9810  22.0369  30.0384  30.0384  30.8213  31.6571
    33.1810  33.5110  33.5110  35.3597  36.5119  36.5119  37.4470  41.6643
    43.4228  43.5473  43.5473  45.3761

          k =-0.0833 0.2500-0.0833 (  1834 PWs)   bands (ev):

    -8.2215  -8.1922  -8.1915  -8.1232  -8.1186  -5.8285   4.1924   5.9539
     6.0362   8.7744   9.8987  11.2383  11.3599  14.6922  15.5839  16.5239
    17.9499  19.3830  20.3024  23.4393  27.8725  27.9160  30.0693  31.2440
    31.7234  33.7255  34.7094  36.4861  37.0361  38.3972  39.9963  40.3110
    41.6536  41.8730  42.4622  43.5608

          k =-0.1667 0.3333-0.1667 (  1828 PWs)   bands (ev):

    -8.2389  -8.1878  -8.1858  -8.1238  -8.1177  -5.4988   2.8384   5.6459
     5.7057   8.6873  10.3859  11.6359  12.1221  14.6753  16.1798  16.3642
    18.2255  21.0471  22.1466  25.1963  25.4564  25.5654  28.1372  31.4706
    31.5652  34.0620  35.0889  36.7675  37.3092  37.9597  39.0816  39.6054
    40.6212  40.7721  41.6119  42.9980

          k =-0.2500 0.4167-0.2500 (  1838 PWs)   bands (ev):

    -8.2568  -8.1834  -8.1811  -8.1229  -8.1166  -5.0646   1.5717   5.3502
     5.4216   8.4533  10.7820  11.7479  12.9274  15.3320  16.1222  16.8484
    19.6282  22.7198  23.4070  23.5216  24.2514  25.8434  27.4873  31.8528
    31.8759  33.6577  34.4700  35.3788  36.0338  36.8705  37.6932  38.8713
    39.1623  39.2590  41.1768  41.8043

          k =-0.3333 0.5000-0.3333 (  1829 PWs)   bands (ev):

    -8.2702  -8.1803  -8.1783  -8.1206  -8.1155  -4.6111   0.5555   5.0549
     5.3102   8.2610  10.8938  11.6382  13.8993  15.6559  17.0085  17.8890
    19.8311  20.9615  22.9377  24.3157  25.2496  26.6451  29.5420  30.9690
    32.0755  32.2382  32.9617  33.8892  35.1582  36.0722  37.3219  37.4638
    37.9650  38.6020  40.4064  40.6947

          k = 0.5833-0.4167 0.5833 (  1829 PWs)   bands (ev):

    -8.2769  -8.1788  -8.1773  -8.1182  -8.1156  -4.3160  -0.0002   4.8601
     5.3207   8.1608  10.9460  11.4807  14.4794  16.3141  17.8923  18.5078
    19.0830  19.9329  21.5339  25.6935  27.6076  28.1323  28.9502  29.8726
    31.2025  32.4122  32.5728  32.8579  34.4385  35.3503  36.4168  37.1113
    37.2692  38.6590  40.1397  40.4677

          k = 0.5000-0.3333 0.5000 (  1830 PWs)   bands (ev):

    -8.2753  -8.1787  -8.1782  -8.1174  -8.1169  -4.3824   0.1197   4.7864
     5.4488   8.1673  11.0650  11.3666  14.4821  16.2651  17.1124  18.2454
    19.3467  21.0081  21.4691  24.9441  26.8499  28.5700  29.0848  30.2585
    31.4953  31.8814  32.5009  33.0173  35.1840  35.2695  36.4708  37.3085
    37.3407  38.6343  40.2796  40.5132

          k = 0.4167-0.2500 0.4167 (  1833 PWs)   bands (ev):

    -8.2658  -8.1808  -8.1801  -8.1201  -8.1170  -4.7569   0.8585   4.8457
     5.6782   8.2782  11.2357  11.2831  13.8118  15.7336  15.8261  17.9046
    19.7540  21.9036  23.4646  23.7693  24.6490  26.2927  28.7061  31.7897
    32.1678  32.4517  33.2911  34.7461  34.9067  35.9222  37.8356  38.0098
    38.4180  38.6837  40.3803  41.0563

          k = 0.3333-0.1667 0.3333 (  1836 PWs)   bands (ev):

    -8.2503  -8.1853  -8.1833  -8.1221  -8.1180  -5.2182   1.9746   5.0459
     5.9775   8.4683  11.1237  11.2702  12.7374  15.0325  15.7324  16.9279
    19.1213  22.0664  23.1488  24.0042  25.5548  25.8427  26.6008  31.4835
    32.0318  34.3946  35.0038  35.3293  36.0797  37.7767  37.9026  38.7781
    39.6471  39.7006  42.0475  42.2341

          k = 0.2500-0.0833 0.2500 (  1832 PWs)   bands (ev):

    -8.2315  -8.1909  -8.1879  -8.1226  -8.1189  -5.6235   3.2705   5.3952
     6.2872   8.6363  10.8059  10.8128  11.9652  14.8952  15.6438  16.3318
    18.1143  20.1353  22.1028  24.3713  25.3826  27.8501  28.2216  31.1212
    31.7647  34.0193  34.8662  37.2760  37.2906  38.6853  39.0387  40.1007
    40.6313  41.3680  41.8501  42.4146

          k = 0.1667-0.0000 0.1667 (  1841 PWs)   bands (ev):

    -8.2149  -8.1954  -8.1932  -8.1220  -8.1197  -5.9081   4.5304   5.9200
     6.5031   8.4483  10.3580  10.4911  11.2395  15.1956  15.3449  16.0005
    18.2640  18.6395  20.3953  22.6931  27.8941  29.6669  30.5424  31.0814
    32.0368  33.7889  34.4872  35.9697  36.9597  37.2624  39.2288  41.2961
    42.1875  42.2859  43.3385  43.4957

          k = 0.0000 0.3333 0.0000 (  1832 PWs)   bands (ev):

    -8.2327  -8.1868  -8.1868  -8.1260  -8.1171  -5.6963   3.8742   5.5908
     5.5908   9.0560   9.6528  11.8459  11.8459  13.9854  16.1724  17.1886
    19.0871  19.0871  19.8160  24.7094  27.4317  27.4317  28.7148  29.1007
    33.4710  33.8917  33.8917  36.3164  39.1577  39.1577  39.4001  40.4552
    40.4552  40.5475  41.1043  43.4737

          k =-0.0833 0.4167-0.0833 (  1829 PWs)   bands (ev):

    -8.2477  -8.1818  -8.1810  -8.1283  -8.1154  -5.4181   2.9385   5.2024
     5.2622   9.0146   9.8700  12.2461  12.3975  14.1662  17.0513  17.2088
    18.9332  20.1914  21.3454  25.4184  25.4548  26.4004  28.3385  28.7880
    31.7098  34.1947  35.0931  36.3221  37.6829  37.9516  38.8159  39.8073
    40.3747  41.1558  41.6840  42.1159

          k =-0.1667 0.5000-0.1667 (  1831 PWs)   bands (ev):

    -8.2624  -8.1782  -8.1758  -8.1288  -8.1141  -5.0228   1.8398   4.7267
     5.0321   9.0295  10.3251  12.1679  12.6393  15.3587  17.3076  17.5428
    19.5892  21.8714  23.1525  23.4030  23.5126  27.6083  28.5019  29.0883
    30.3348  33.2346  34.5975  35.8503  36.4162  36.4758  37.9754  39.1525
    39.8604  40.5037  40.9522  42.1795

          k =-0.2500 0.5833-0.2500 (  1826 PWs)   bands (ev):

    -8.2741  -8.1760  -8.1723  -8.1270  -8.1135  -4.5755   0.8453   4.2798
     4.9299   8.9203  10.8482  12.5038  12.5516  16.4120  17.5089  18.4316
    19.8120  20.9464  23.0255  23.9974  25.7984  26.1943  29.5063  29.7932
    30.3824  31.0016  33.8824  34.8297  35.3845  35.6859  36.4431  36.7265
    39.2395  39.8092  40.7877  41.4800

          k = 0.6667-0.3333 0.6667 (  1815 PWs)   bands (ev):

    -8.2803  -8.1752  -8.1710  -8.1238  -8.1144  -4.2174   0.1783   3.9427
     4.9647   8.8538  10.9937  12.3248  13.5795  16.3854  18.1147  18.5324
    19.2930  20.3138  23.8011  25.2020  26.2287  27.6463  28.3674  29.8562
    30.4948  31.0509  33.0913  33.2490  34.6768  34.8947  35.5700  36.1785
    37.0981  39.8271  40.1711  41.4576

          k = 0.5833-0.2500 0.5833 (  1816 PWs)   bands (ev):

    -8.2803  -8.1755  -8.1720  -8.1206  -8.1170  -4.1591   0.0816   3.7534
     5.1308   8.8846  11.0796  12.0928  14.4984  16.0408  16.9749  17.6644
    20.4460  21.9042  22.5248  24.7130  27.3954  28.4518  28.4964  30.0227
    30.3128  30.8186  31.7312  33.4164  34.5113  34.5228  35.5722  35.7196
    37.3299  40.0640  40.1464  41.4735

          k = 0.5000-0.1667 0.5000 (  1822 PWs)   bands (ev):

    -8.2737  -8.1767  -8.1750  -8.1205  -8.1186  -4.4461   0.5987   3.7424
     5.4075   9.0049  11.2509  11.8684  13.6720  15.6232  16.5608  18.3290
    19.9212  22.0482  23.6096  23.8710  25.3582  28.1352  29.4904  29.9156
    30.5080  31.3566  31.6656  34.1991  34.9898  35.4075  35.4283  36.5035
    39.1404  40.5363  40.7316  41.6448

          k = 0.4167-0.0833 0.4167 (  1835 PWs)   bands (ev):

    -8.2619  -8.1800  -8.1790  -8.1231  -8.1180  -4.8846   1.4902   3.9565
     5.7526   9.1561  11.4048  11.5630  12.5146  14.7702  16.8991  18.2930
    19.5678  21.1091  22.5674  25.5949  25.6655  26.3813  28.2891  29.0515
    30.1932  33.6281  34.3176  34.7602  35.6799  35.9887  36.4930  38.4771
    40.9663  41.0300  41.2748  42.1922

          k = 0.3333 0.0000 0.3333 (  1841 PWs)   bands (ev):

    -8.2467  -8.1860  -8.1829  -8.1237  -8.1183  -5.3047   2.4622   4.4890
     6.0880   9.1402  11.0198  11.1363  12.1877  14.5591  16.4339  17.1731
    19.0639  20.5235  23.0105  23.9002  25.9621  27.3690  28.2490  28.8996
    30.4147  34.2903  35.3145  36.4312  36.9329  37.5789  38.4053  39.7819
    40.4616  41.0341  41.4960  41.8593

          k = 0.0000 0.5000 0.0000 (  1828 PWs)   bands (ev):

    -8.2610  -8.1746  -8.1746  -8.1324  -8.1133  -5.1939   2.4927   4.9087
     4.9087   8.4857   9.7970  13.1842  13.1842  13.9564  17.7666  17.9461
    20.2986  20.2986  20.8595  24.9944  24.9944  26.6726  26.7962  27.9828
    33.9410  34.4580  34.4580  35.0911  36.1608  36.1608  37.3863  38.2084
    42.2610  42.7694  42.7694  42.9149

          k =-0.0833 0.5833-0.0833 (  1822 PWs)   bands (ev):

    -8.2738  -8.1695  -8.1687  -8.1347  -8.1117  -4.8485   1.7235   4.4652
     4.6554   8.5194   9.6903  13.1312  13.6914  15.2355  18.1477  18.6461
    20.3804  21.4685  22.6751  23.1648  23.3732  26.4091  26.5543  29.7436
    32.2681  32.8153  34.4326  34.7080  34.9330  35.6506  36.7064  39.1130
    39.8127  41.2870  42.2876  43.0679

          k =-0.1667 0.6667-0.1667 (  1820 PWs)   bands (ev):

    -8.2833  -8.1678  -8.1646  -8.1341  -8.1111  -4.4331   0.9216   3.8667
     4.5354   8.6680  10.2074  12.8341  13.7474  16.7680  18.6764  18.9194
    20.3071  21.0830  22.7820  23.2314  25.0214  26.5046  26.9091  29.6810
    30.3194  32.1596  33.1161  33.4008  35.2455  35.3157  36.7071  37.3883
    38.6281  41.1469  41.3522  41.8156

          k = 0.7500-0.2500 0.7500 (  1821 PWs)   bands (ev):

    -8.2877  -8.1686  -8.1630  -8.1313  -8.1124  -4.0583   0.2994   3.3376
     4.5610   8.7050  11.2496  12.7552  13.5176  16.9196  18.6614  19.1485
    19.6632  20.7396  24.2430  25.2302  25.9220  27.1494  27.3536  27.5915
    29.4533  31.7709  32.1497  33.1209  34.4714  35.3505  36.1808  36.4160
    37.5391  38.5363  40.4203  41.7491

          k = 0.6667-0.1667 0.6667 (  1822 PWs)   bands (ev):

    -8.2871  -8.1707  -8.1641  -8.1271  -8.1155  -3.9098   0.0830   2.9962
     4.7285   8.8196  11.9012  13.1910  13.4495  15.6050  17.0443  19.1192
    20.8624  22.3441  24.3136  24.6056  26.8604  26.9442  28.1126  28.5251
    29.5737  30.9505  31.7598  32.2971  33.1066  35.4116  35.9134  36.2260
    37.0399  38.2671  40.3113  41.5459

          k = 0.5833-0.0833 0.5833 (  1816 PWs)   bands (ev):

    -8.2817  -8.1730  -8.1675  -8.1228  -8.1192  -4.0929   0.3666   2.9173
     5.0184   9.0380  12.0545  12.7907  13.5887  15.4425  15.7091  19.2760
    21.0464  22.4798  24.0952  24.2755  26.4320  27.0378  28.7053  29.6625
    30.1682  30.6161  31.8233  32.4132  33.0806  34.4842  35.6297  36.4849
    37.5827  40.2800  40.8825  41.8442

          k = 0.5000 0.0000 0.5000 (  1829 PWs)   bands (ev):

    -8.2730  -8.1758  -8.1734  -8.1221  -8.1197  -4.4764   0.9319   3.2057
     5.3874   9.2626  12.1531  12.2239  12.3619  14.9372  16.9097  19.2518
    19.9060  20.9462  24.1207  25.1200  26.0962  26.8782  28.3075  28.9657
    30.3964  31.9199  32.6548  33.5165  33.7689  35.2243  36.1374  37.6939
    38.1890  41.8182  42.1550  42.1971

          k = 0.0000 0.6667 0.0000 (  1832 PWs)   bands (ev):

    -8.2858  -8.1622  -8.1622  -8.1390  -8.1098  -4.5594   1.2240   4.3717
     4.3717   8.0646   9.1453  14.6100  14.6100  15.1635  18.5603  19.6124
    21.9716  21.9716  22.3327  22.8130  22.8130  24.7643  25.1165  31.3440
    31.9469  32.7157  32.7157  34.0119  34.9073  35.2392  35.2392  38.5160
    41.1574  41.4268  41.4268  43.0573

          k =-0.0833 0.7500-0.0833 (  1811 PWs)   bands (ev):

    -8.2940  -8.1586  -8.1574  -8.1403  -8.1087  -4.1995   0.6322   3.9424
     4.2208   8.1909   9.0605  14.4863  15.0180  16.6665  19.2049  19.6628
    21.2312  21.6738  22.4475  23.2483  24.3455  24.6078  25.2904  29.5109
    31.1961  31.2080  32.4680  33.1156  34.2981  35.6567  36.5237  38.4779
    39.9361  40.5381  41.3380  42.1597

          k = 0.8333-0.1667 0.8333 (  1807 PWs)   bands (ev):

    -8.2971  -8.1598  -8.1555  -8.1383  -8.1096  -3.8608   0.1651   3.3034
     4.2190   8.3420   9.8519  14.1880  14.8839  17.1842  18.9308  19.4631
    20.9348  21.2761  23.5190  24.6119  25.3374  25.4380  26.8742  27.3285
    30.0555  30.1160  31.0051  32.6967  34.9869  35.9782  35.9784  37.9770
    38.3154  40.2748  40.6834  41.6567

          k = 0.7500-0.0833 0.7500 (  1820 PWs)   bands (ev):

    -8.2951  -8.1638  -8.1568  -8.1340  -8.1127  -3.6921  -0.0186   2.7817
     4.3658   8.4833  11.1880  14.0071  14.4493  15.7063  17.3834  20.5095
    21.4402  22.5227  23.9054  24.7685  25.1089  26.7966  27.2143  28.7773
    29.3860  29.4662  30.4237  31.9349  33.5875  35.2829  36.4356  37.0590
    37.9928  39.3354  40.1754  41.8912

          k = 0.6667 0.0000 0.6667 (  1798 PWs)   bands (ev):

    -8.2892  -8.1684  -8.1607  -8.1282  -8.1162  -3.7944   0.1133   2.5965
     4.6453   8.7402  12.4220  13.7465  14.0854  14.2561  16.2417  20.8213
    21.2819  22.7639  24.1089  24.8246  25.4377  27.2930  28.2430  29.2111
    29.3870  29.9338  30.1662  32.9244  33.6640  33.8755  35.4423  36.0442
    37.2469  40.5862  41.4659  41.7220

          k = 0.0000 0.8333 0.0000 (  1816 PWs)   bands (ev):

    -8.3022  -8.1525  -8.1525  -8.1443  -8.1071  -3.9192   0.1973   4.0340
     4.0340   7.8946   8.4853  15.9872  15.9872  16.6383  19.5074  20.2029
    20.9392  20.9392  23.0726  24.1330  24.1330  24.2154  25.1177  28.9733
    29.5486  29.5486  30.4487  34.6956  36.0426  36.0426  36.3294  38.7125
    40.1477  40.1477  40.8365  42.8199

          k = 0.9167-0.0833 0.9167 (  1802 PWs)   bands (ev):

    -8.3048  -8.1525  -8.1505  -8.1435  -8.1070  -3.6798  -0.1147   3.6743
     3.9961   8.0716   8.6229  15.8605  16.1594  17.3689  19.3813  19.4958
    20.7079  21.3237  23.0101  24.0724  25.5404  25.7121  26.6721  26.9495
    28.2164  28.5390  29.8652  33.5033  36.2137  36.3306  37.5938  38.6606
    39.7341  40.0426  40.9405  41.9105

          k = 0.8333 0.0000 0.8333 (  1812 PWs)   bands (ev):

    -8.3020  -8.1571  -8.1521  -8.1396  -8.1094  -3.5919  -0.1650   3.1099
     4.1107   8.2233   9.7106  15.3173  15.5617  16.3040  18.1486  20.1666
    21.9262  22.2807  23.6761  23.9953  24.2823  27.0730  27.1380  27.5495
    27.7565  29.7791  30.0357  31.3937  34.3677  36.2924  37.4242  38.2529
    39.8406  39.9329  40.7124  41.1643

          k = 0.0000-1.0000 0.0000 (  1772 PWs)   bands (ev):

    -8.3075  -8.1487  -8.1487  -8.1459  -8.1056  -3.6024  -0.2497   3.9192
     3.9192   7.9321   8.1540  16.7522  16.7522  17.5004  19.8361  20.0186
    20.0186  20.1500  22.1816  26.0324  26.4908  26.4908  26.6140  26.6523
    26.8438  26.8438  28.2868  35.2925  36.4834  36.4834  37.7014  39.5440
    39.5440  40.5835  40.7014  41.4481

          k =-0.1667 0.3333 0.0000 (  1829 PWs)   bands (ev):

    -8.2355  -8.1881  -8.1858  -8.1249  -8.1174  -5.5960   3.3601   5.2115
     5.9485   9.2069   9.8325  11.6045  11.9810  14.3848  16.3637  16.5407
    18.7108  19.4721  21.6261  24.9659  25.3811  27.4951  28.8188  30.7052
    30.9663  32.9239  36.6380  36.8717  37.6162  38.8372  39.3146  39.8737
    40.3325  41.3063  41.6712  42.4966

          k =-0.2500 0.4167-0.0833 (  1831 PWs)   bands (ev):

    -8.2516  -8.1833  -8.1806  -8.1257  -8.1164  -5.2327   2.2679   4.6527
     5.6986   9.2187  10.3117  11.9961  12.1931  14.7739  16.5885  17.3423
    19.0651  21.0879  23.0791  23.4945  25.6086  26.7993  27.9653  29.6353
    31.0847  32.9774  35.0451  36.8548  37.0764  37.6200  38.4553  39.4485
    40.0213  40.5255  40.8451  41.8361

          k =-0.3333 0.5000-0.1667 (  1827 PWs)   bands (ev):

    -8.2662  -8.1794  -8.1765  -8.1245  -8.1156  -4.7880   1.1831   4.3177
     5.4007   9.0469  10.7340  12.0506  12.7765  15.5980  16.6471  18.2994
    19.6104  21.7023  22.9338  23.8858  25.6441  26.0531  29.0464  29.6620
    31.4428  32.1474  33.4038  34.4462  35.6444  36.7972  37.6243  38.3914
    38.7400  39.6566  40.5892  41.7329

          k = 0.5833-0.4167 0.7500 (  1820 PWs)   bands (ev):

    -8.2761  -8.1774  -8.1739  -8.1219  -8.1156  -4.3718   0.3478   4.1432
     5.1772   8.9119  10.7713  12.0498  13.8134  16.1125  17.1872  18.2995
    19.5866  21.1292  23.2884  24.3537  25.8739  28.0185  29.1081  30.0220
    31.2073  31.6550  32.1643  33.3955  34.0893  35.0212  37.0648  37.3186
    38.0943  38.2111  40.2093  41.8419

          k = 0.5000-0.3333 0.6667 (  1820 PWs)   bands (ev):

    -8.2797  -8.1768  -8.1729  -8.1203  -8.1161  -4.1864   0.0179   4.0899
     5.0951   8.8635  10.7450  12.0318  14.5729  16.0349  17.3062  18.4485
    19.2069  21.4095  22.2924  25.5746  27.0256  28.2217  28.7536  30.0571
    30.7627  31.0776  32.1163  33.4888  34.1342  34.7795  34.9612  36.8876
    37.7586  38.2498  40.3449  41.9768

          k =-0.1667 0.5000 0.0000 (  1830 PWs)   bands (ev):

    -8.2614  -8.1767  -8.1750  -8.1306  -8.1139  -5.1058   2.1935   4.5311
     5.1219   9.0702   9.9355  12.2393  13.0484  14.7988  17.5470  17.9092
    19.5745  20.8211  22.7311  23.1486  25.1007  26.7589  28.1347  28.7291
    31.4265  33.0660  34.3255  35.3884  37.0488  37.3251  38.4584  39.1738
    39.5946  40.6733  41.6536  42.4224

          k =-0.2500 0.5833-0.0833 (  1829 PWs)   bands (ev):

    -8.2734  -8.1738  -8.1700  -8.1308  -8.1132  -4.6971   1.3271   3.9859
     4.8649   9.2677  10.3318  11.9601  13.4545  15.8006  17.9513  18.6386
    19.9242  21.4232  22.5057  23.6100  24.8539  26.4483  28.6462  29.6781
    30.6609  31.6397  33.1332  33.6414  35.8383  36.7602  37.7722  38.5785
    38.8758  39.9741  40.9571  41.9174

          k = 0.6667-0.3333 0.8333 (  1823 PWs)   bands (ev):

    -8.2815  -8.1729  -8.1667  -8.1287  -8.1136  -4.2766   0.5482   3.5930
     4.6768   9.2655  10.9594  12.1051  13.5061  16.5400  17.9936  18.8611
    19.7304  21.3127  22.9555  24.9911  25.8994  27.1052  28.1506  28.7534
    30.0722  32.0256  32.6227  33.1595  33.8680  35.5036  35.8565  37.5377
    38.8429  39.1124  39.5053  41.4162

          k = 0.5833-0.2500 0.7500 (  1813 PWs)   bands (ev):

    -8.2846  -8.1732  -8.1656  -8.1256  -8.1152  -4.0112   0.1098   3.3398
     4.6586   9.3028  11.0053  12.8434  13.7791  15.6122  18.2176  18.7658
    19.3773  22.0799  24.2016  24.9994  26.2143  27.3820  28.0521  29.5289
    30.2689  30.6145  31.7963  32.8601  33.8270  34.6205  35.5166  36.5285
    37.4003  38.7790  39.4675  40.9215

          k = 0.5000-0.1667 0.6667 (  1817 PWs)   bands (ev):

    -8.2824  -8.1742  -8.1670  -8.1240  -8.1170  -4.0778   0.2217   3.2492
     4.8147   9.4281  10.9731  12.7697  13.9795  15.3573  17.1055  18.5398
    20.6030  22.6102  23.3533  24.3474  26.7700  27.6733  28.3138  29.7610
    30.1376  30.6857  31.8325  33.0683  33.5470  34.1370  34.8628  37.5810
    37.9968  39.0316  39.5967  40.5801

          k = 0.4167-0.0833 0.5833 (  1826 PWs)   bands (ev):

    -8.2755  -8.1758  -8.1706  -8.1252  -8.1166  -4.4244   0.8066   3.3792
     5.1038   9.5987  10.9657  12.1076  13.2722  15.5252  17.0830  18.9302
    20.0638  21.4054  23.4585  24.6685  25.7933  27.4285  28.1414  29.7748
    30.5093  31.2801  32.5650  33.2477  33.5155  35.3254  36.5777  38.2178
    38.9834  39.7091  40.4618  41.0996

          k = 0.3333 0.0000 0.5000 (  1829 PWs)   bands (ev):

    -8.2647  -8.1786  -8.1755  -8.1263  -8.1161  -4.8536   1.5714   3.8253
     5.4468   9.6575  10.5662  11.8355  12.7028  14.9521  17.5323  18.2441
    19.8457  20.7803  22.4318  24.9806  25.7138  26.7503  28.3157  29.3293
    29.9515  32.7668  33.2423  34.3863  35.7363  36.9604  37.8807  39.5268
    39.8711  40.1097  40.9076  41.0802

          k =-0.1667 0.6667-0.0000 (  1816 PWs)   bands (ev):

    -8.2842  -8.1653  -8.1629  -8.1364  -8.1106  -4.4917   1.0948   4.0176
     4.4066   8.6608   9.5268  13.1355  14.5598  16.0358  18.8399  19.1400
    20.8865  21.4299  22.6755  22.8846  24.2531  25.0656  26.7319  30.8020
    31.0288  32.1927  32.6388  33.5536  34.3582  35.0012  37.5216  38.6983
    39.8153  40.0116  41.0831  41.9697

          k = 0.7500-0.2500 0.9167 (  1818 PWs)   bands (ev):

    -8.2905  -8.1650  -8.1593  -8.1354  -8.1110  -4.1034   0.4970   3.4779
     4.2114   8.9345  10.0643  12.8240  14.8398  16.8049  18.5442  19.8248
    20.2842  21.6158  22.4533  24.2140  25.2326  26.4978  27.1029  28.3441
    30.0681  30.6566  32.9666  33.3115  34.4048  34.6281  35.8490  37.9180
    38.6942  39.5512  40.7475  41.6801

          k = 0.6667-0.1667 0.8333 (  1818 PWs)   bands (ev):

    -8.2919  -8.1671  -8.1583  -8.1323  -8.1131  -3.8163   0.1087   2.9945
     4.2144   9.0442  11.2423  12.6151  14.5719  15.9054  18.6203  19.5373
    20.2728  22.3433  23.9334  25.0067  25.8878  26.5848  27.2429  28.7225
    29.3798  29.8057  31.6510  32.6266  34.0421  34.9170  35.3538  36.7573
    38.0513  38.9161  39.7501  40.1949

          k = 0.5833-0.0833 0.7500 (  1817 PWs)   bands (ev):

    -8.2892  -8.1700  -8.1600  -8.1283  -8.1162  -3.7939   0.0941   2.7350
     4.3988   9.2397  11.9702  12.8801  14.0244  14.9457  17.1475  20.2015
    20.9915  23.0430  23.6440  24.7534  26.3068  26.9604  28.0484  28.7825
    29.4047  30.1056  31.7660  32.5546  32.8713  34.0863  35.2983  36.0648
    38.3225  38.8875  39.5435  40.3016

          k = 0.5000 0.0000 0.6667 (  1828 PWs)   bands (ev):

    -8.2835  -8.1730  -8.1644  -8.1257  -8.1178  -4.0477   0.4066   2.8299
     4.7206   9.5085  11.9087  12.1006  14.1757  15.1223  16.2730  20.2826
    20.5346  22.1044  23.9299  24.7330  26.3602  26.9626  28.6345  29.2062
    29.9535  30.1425  31.9386  32.8657  33.5815  33.7329  35.8457  35.9652
    38.8354  39.1707  39.4846  42.2322

          k = 0.8333-0.1667 1.0000 (  1808 PWs)   bands (ev):

    -8.2995  -8.1568  -8.1539  -8.1407  -8.1083  -3.8823   0.1885   3.7257
     3.9182   8.4669   8.9654  14.4442  15.8959  17.1037  18.9852  19.8605
    20.9008  21.6974  22.8753  23.7049  24.4335  25.9725  26.1752  27.8581
    28.7410  30.9842  31.5494  32.7190  34.3660  36.1593  37.0860  38.2545
    39.4725  40.1131  40.7880  41.4810

          k = 0.7500-0.0833 0.9167 (  1812 PWs)   bands (ev):

    -8.2997  -8.1595  -8.1532  -8.1380  -8.1102  -3.6500  -0.0669   3.1937
     3.8761   8.7332   9.7965  14.1228  15.3449  16.8334  18.8566  19.5902
    21.1320  22.6746  23.3096  24.5340  25.1047  25.6002  27.0954  27.8231
    28.7620  30.1768  31.0547  31.5012  33.7318  35.2166  37.4795  37.9613
    38.3572  39.9752  40.2532  41.3642

          k = 0.6667 0.0000 0.8333 (  1817 PWs)   bands (ev):

    -8.2956  -8.1647  -8.1551  -8.1336  -8.1133  -3.6184  -0.0594   2.7548
     4.0642   8.9374  11.2030  13.7227  14.0244  16.0877  17.6825  20.5039
    21.7940  22.8807  23.2779  24.8298  25.2964  26.6744  26.9623  28.7245
    29.3887  29.9568  30.9204  32.0004  32.8187  34.2537  35.2076  37.8751
    38.5841  39.3731  39.6445  41.0362

          k =-0.1667-1.0000 0.0000 (  1800 PWs)   bands (ev):

    -8.3049  -8.1534  -8.1511  -8.1418  -8.1076  -3.5876  -0.2073   3.6664
     3.7117   8.4648   8.6937  15.6880  15.7888  17.5393  19.0031  19.9778
    20.0971  22.1223  23.2100  24.8705  25.4088  25.5462  26.0907  28.0172
    28.3035  28.5237  29.1295  33.1179  34.4723  37.1723  37.4792  39.1835
    39.3977  40.0289  41.2618  41.3102

          k = 0.6667-0.3333 1.0000 (  1835 PWs)   bands (ev):

    -8.2822  -8.1718  -8.1645  -8.1309  -8.1137  -4.3049   0.7739   3.3639
     4.5414   9.9736  10.3924  11.6038  14.4061  15.9416  17.7051  19.7074
    20.3446  21.0599  23.2476  23.9770  25.3999  26.8928  28.8399  29.2323
    29.9027  30.8279  32.1622  32.7791  34.7689  35.5634  36.6115  37.3426
    38.6967  38.7884  41.2788  41.3764

          k = 0.5833-0.2500 0.9167 (  1820 PWs)   bands (ev):

    -8.2873  -8.1713  -8.1605  -8.1293  -8.1150  -3.9479   0.2841   3.0165
     4.2439  10.1367  10.8869  11.8463  14.6508  15.5080  17.6446  19.9429
    20.4999  22.4858  22.8962  24.6605  26.5904  27.3738  27.9557  29.0588
    29.4654  29.6991  31.8840  32.7565  34.4880  34.8587  35.2006  36.1323
    37.2335  38.0815  40.2872  41.7947

          k = 0.5000-0.1667 0.8333 (  1816 PWs)   bands (ev):

    -8.2890  -8.1713  -8.1592  -8.1283  -8.1159  -3.7934   0.0755   2.9114
     4.1284  10.1534  10.8651  12.7549  13.9531  15.1794  18.7483  19.3650
    19.9440  23.4445  23.9629  24.7227  25.6999  26.7392  28.6065  29.0507
    29.7434  30.0644  31.6995  32.1793  32.9554  34.3336  35.6072  36.9490
    37.2292  37.6147  38.3513  41.8865

          k = 0.6667-0.1667 1.0000 (  1818 PWs)   bands (ev):

    -8.2940  -8.1656  -8.1557  -8.1343  -8.1124  -3.7899   0.1477   3.1694
     3.7763   9.8179  10.1549  12.4761  15.1230  16.4905  18.2843  20.2750
    20.9466  22.1333  23.0541  23.7870  26.4930  26.9657  27.2841  28.1619
    28.6922  30.0986  31.9701  32.7962  33.6898  34.6415  35.9216  36.8072
    37.3458  37.8946  41.8872  42.6026

          k = 0.5833-0.0833 0.9167 (  1820 PWs)   bands (ev):

    -8.2940  -8.1677  -8.1546  -8.1318  -8.1146  -3.6194  -0.0170   2.8952
     3.6359  10.1021  11.2625  12.2506  13.6352  16.6861  18.9152  19.5223
    21.0915  22.6965  23.9859  24.7658  25.4704  26.5921  27.2411  28.5951
    29.6341  30.6741  31.4115  32.1878  33.3359  33.8618  34.4149  35.8111
    36.7907  39.0072  40.1543  42.4654

          k = 0.5000 0.0000 0.8333 (  1823 PWs)   bands (ev):

    -8.2915  -8.1698  -8.1563  -8.1299  -8.1159  -3.6874   0.0596   2.7829
     3.8403  10.3205  11.6258  11.8850  13.5321  16.2265  17.8925  20.4291
    21.3023  22.2697  23.2941  25.1164  26.3002  27.1192  27.6971  28.2667
    28.9292  30.9459  31.8946  32.5017  32.7097  34.2105  34.6993  36.0764
    36.2886  37.6396  41.2984  41.8480

          k =-0.3333-1.0000 0.0000 (  1810 PWs)   bands (ev):

    -8.2982  -8.1630  -8.1528  -8.1352  -8.1120  -3.5574  -0.1146   3.2348
     3.3700   9.7776   9.9854  13.6642  13.9551  17.6040  18.8512  19.9274
    20.2624  23.6376  24.3955  24.6196  24.9304  25.2175  25.9246  29.5564
    30.2232  30.4921  30.5324  31.2030  32.2180  34.7903  35.6779  36.6043
    37.6332  40.3579  40.8331  42.4425

          k =-0.5000-1.0000 0.0000 (  1800 PWs)   bands (ev):

    -8.2943  -8.1681  -8.1532  -8.1311  -8.1151  -3.5421  -0.0635   3.0410
     3.2232  11.1912  11.2284  11.9540  12.5477  17.6370  18.8422  19.9033
    20.3610  23.3769  24.3987  24.4230  24.9985  26.2795  27.7620  28.1878
    29.8546  31.1680  31.4577  33.2675  33.3808  33.5971  33.8484  34.1962
    34.9106  40.8078  41.6888  41.8796

     the Fermi energy is     6.7322 ev
     (compare with:     6.6194 eV, computed in scf)

     Writing all to output data dir ./outdir/GaAs.save/ :
     XML data file, pseudopotentials, collected wavefunctions

     init_run     :      1.01s CPU      1.07s WALL (       1 calls)
     electrons    :    129.12s CPU    129.83s WALL (       1 calls)

     Called by init_run:
     wfcinit      :      0.00s CPU      0.00s WALL (       1 calls)
     potinit      :      0.07s CPU      0.08s WALL (       1 calls)
     hinit0       :      0.79s CPU      0.79s WALL (       1 calls)

     Called by electrons:
     c_bands      :    129.04s CPU    129.75s WALL (       1 calls)
     v_of_rho     :      0.06s CPU      0.07s WALL (       1 calls)
     newd         :      0.12s CPU      0.17s WALL (       1 calls)

     Called by c_bands:
     init_us_2    :      0.04s CPU      0.05s WALL (      72 calls)
     cegterg      :    125.15s CPU    125.81s WALL (     169 calls)

     Called by *egterg:
     cdiaghg      :      6.14s CPU      6.17s WALL (    2924 calls)
     h_psi        :     61.96s CPU     62.38s WALL (    3093 calls)
     s_psi        :      3.52s CPU      3.53s WALL (    3093 calls)
     g_psi        :      1.03s CPU      1.03s WALL (    2852 calls)

     Called by h_psi:
     h_psi:calbec :      4.34s CPU      4.36s WALL (    3093 calls)
     vloc_psi     :     53.96s CPU     54.33s WALL (    3093 calls)
                                        0.00s GPU  (    3093 calls)
     add_vuspsi   :      3.49s CPU      3.51s WALL (    3093 calls)

     General routines
     calbec       :      4.33s CPU      4.35s WALL (    3093 calls)
     fft          :      0.03s CPU      0.03s WALL (      13 calls)
     ffts         :      0.00s CPU      0.00s WALL (       1 calls)
     fftw         :     47.16s CPU     47.50s WALL (  119474 calls)
     interpolate  :      0.00s CPU      0.00s WALL (       1 calls)
     davcio       :      0.01s CPU      0.02s WALL (     144 calls)


     PWSCF        :   2m10.34s CPU   2m11.14s WALL


   This run was terminated on:   0:14:35  10Dec2025            

=------------------------------------------------------------------------------=
   JOB DONE.
=------------------------------------------------------------------------------=
