
     Program PWSCF v.7.5 starts on  9Dec2025 at 20:17:44 

     This program is part of the open-source Quantum ESPRESSO suite
     for quantum simulation of materials; please cite
         "P. Giannozzi et al., J. Phys.:Condens. Matter 21 395502 (2009);
         "P. Giannozzi et al., J. Phys.:Condens. Matter 29 465901 (2017);
         "P. Giannozzi et al., J. Chem. Phys. 152 154105 (2020);
          URL http://www.quantum-espresso.org", 
     in publications or presentations arising from this work. More details at
     http://www.quantum-espresso.org/quote

     Serial version
     22943 MiB available memory on the printing compute node when the environment starts

     Reading input from GaAs.vc_relax.in

     Current dimensions of program PWSCF are:
     Max number of different atomic species (ntypx) = 10
     Max number of k-points (npk) =  40000
     Max angular momentum in pseudopotentials (lmaxx) =  4
     file Ga.pbesol-dnl-rrkjus_psl.1.0.0.UPF: wavefunction(s)  3D renormalized


     G-vector sticks info
     --------------------
     sticks:   dense  smooth     PW     G-vecs:    dense   smooth      PW
     Sum        1237     613    199                28571    10081    1807

     Using Slab Decomposition



     bravais-lattice index     =            2
     lattice parameter (alat)  =       9.4486  a.u.
     unit-cell volume          =     210.8834 (a.u.)^3
     number of atoms/cell      =            2
     number of atomic types    =            2
     number of electrons       =        18.00 (up:   9.00, down:   9.00)
     number of Kohn-Sham states=           36
     kinetic-energy cutoff     =      50.0000  Ry
     charge density cutoff     =     400.0000  Ry
     scf convergence threshold =      1.0E-09
     mixing beta               =       0.3000
     number of iterations used =            8  plain     mixing
     energy convergence thresh.=      1.0E-05
     force convergence thresh. =      1.0E-04
     press convergence thresh. =      5.0E-01
     Exchange-correlation= PBESOL
                           (   1   4  10   8   0   0   0)
     nstep                     =           50


     celldm(1)=   9.448600  celldm(2)=   0.000000  celldm(3)=   0.000000
     celldm(4)=   0.000000  celldm(5)=   0.000000  celldm(6)=   0.000000

     crystal axes: (cart. coord. in units of alat)
               a(1) = (  -0.500000   0.000000   0.500000 )  
               a(2) = (   0.000000   0.500000   0.500000 )  
               a(3) = (  -0.500000   0.500000   0.000000 )  

     reciprocal axes: (cart. coord. in units 2 pi/alat)
               b(1) = ( -1.000000 -1.000000  1.000000 )  
               b(2) = (  1.000000  1.000000  1.000000 )  
               b(3) = ( -1.000000  1.000000 -1.000000 )  


     PseudoPot. # 1 for Ga read from file:
     /home/kirill/Desktop/src/q-e-pseudos/Ga.pbesol-dnl-rrkjus_psl.1.0.0.UPF
     MD5 check sum: af75e18138b17f4c63d92c4186babeee
     Pseudo is Ultrasoft + core correction, Zval = 13.0
     Generated using &quot;atomic&quot; code by A. Dal Corso  v.6.3
     Using radial grid of 1205 points,  6 beta functions with: 
                l(1) =   0
                l(2) =   0
                l(3) =   1
                l(4) =   1
                l(5) =   2
                l(6) =   2
     Q(r) pseudized with 0 coefficients 


     PseudoPot. # 2 for As read from file:
     /home/kirill/Desktop/src/q-e-pseudos/As.pbesol-n-rrkjus_psl.0.2.UPF
     MD5 check sum: aea6fa71b557bb134146747eb310c298
     Pseudo is Ultrasoft + core correction, Zval =  5.0
     Generated using "atomic" code by A. Dal Corso  v.5.0.2 svn rev. 9415
     Using radial grid of 1209 points,  4 beta functions with: 
                l(1) =   0
                l(2) =   0
                l(3) =   1
                l(4) =   1
     Q(r) pseudized with 0 coefficients 


     atomic species   valence    mass     pseudopotential
     Ga               13.00    69.72300     Ga( 1.00)
     As                5.00    74.92159     As( 1.00)

     Starting magnetic structure 
     atomic species   magnetization
     Ga              0.200
     As             -0.200

     24 Sym. Ops. (no inversion) found



   Cartesian axes

     site n.     atom                  positions (alat units)
         1        Ga     tau(   1) = (   0.0000000   0.0000000   0.0000000  )
         2        As     tau(   2) = (   0.2500000   0.2500000   0.2500000  )

     number of k points=    29
                       cart. coord. in units 2pi/alat
        k(    1) = (   0.0000000   0.0000000   0.0000000), wk =   0.0019531
        k(    2) = (  -0.1250000   0.1250000  -0.1250000), wk =   0.0156250
        k(    3) = (  -0.2500000   0.2500000  -0.2500000), wk =   0.0156250
        k(    4) = (  -0.3750000   0.3750000  -0.3750000), wk =   0.0156250
        k(    5) = (   0.5000000  -0.5000000   0.5000000), wk =   0.0078125
        k(    6) = (   0.0000000   0.2500000   0.0000000), wk =   0.0117188
        k(    7) = (  -0.1250000   0.3750000  -0.1250000), wk =   0.0468750
        k(    8) = (  -0.2500000   0.5000000  -0.2500000), wk =   0.0468750
        k(    9) = (   0.6250000  -0.3750000   0.6250000), wk =   0.0468750
        k(   10) = (   0.5000000  -0.2500000   0.5000000), wk =   0.0468750
        k(   11) = (   0.3750000  -0.1250000   0.3750000), wk =   0.0468750
        k(   12) = (   0.2500000   0.0000000   0.2500000), wk =   0.0234375
        k(   13) = (   0.0000000   0.5000000   0.0000000), wk =   0.0117188
        k(   14) = (  -0.1250000   0.6250000  -0.1250000), wk =   0.0468750
        k(   15) = (   0.7500000  -0.2500000   0.7500000), wk =   0.0468750
        k(   16) = (   0.6250000  -0.1250000   0.6250000), wk =   0.0468750
        k(   17) = (   0.5000000   0.0000000   0.5000000), wk =   0.0234375
        k(   18) = (   0.0000000   0.7500000   0.0000000), wk =   0.0117188
        k(   19) = (   0.8750000  -0.1250000   0.8750000), wk =   0.0468750
        k(   20) = (   0.7500000   0.0000000   0.7500000), wk =   0.0234375
        k(   21) = (   0.0000000  -1.0000000   0.0000000), wk =   0.0058594
        k(   22) = (  -0.2500000   0.5000000   0.0000000), wk =   0.0468750
        k(   23) = (   0.6250000  -0.3750000   0.8750000), wk =   0.0937500
        k(   24) = (   0.5000000  -0.2500000   0.7500000), wk =   0.0468750
        k(   25) = (   0.7500000  -0.2500000   1.0000000), wk =   0.0468750
        k(   26) = (   0.6250000  -0.1250000   0.8750000), wk =   0.0937500
        k(   27) = (   0.5000000   0.0000000   0.7500000), wk =   0.0468750
        k(   28) = (  -0.2500000  -1.0000000   0.0000000), wk =   0.0234375
        k(   29) = (  -0.5000000  -1.0000000   0.0000000), wk =   0.0117188

     Dense  grid:    28571 G-vectors     FFT dimensions: (  45,  45,  45)

     Smooth grid:    10081 G-vectors     FFT dimensions: (  32,  32,  32)

     Estimated max dynamical RAM per process >     167.07 MB
     Generating pointlists ...
     new r_m :   0.1786 (alat units)  1.6877 (a.u.) for type    1
     new r_m :   0.1786 (alat units)  1.6877 (a.u.) for type    2

     Initial potential from superposition of free atoms

     starting charge      17.9971, renormalised to      18.0000
     Starting wfcs are   13 randomized atomic wfcs +   23 random wfcs

     total cpu time spent up to now is        4.3 secs

     Self-consistent Calculation

     iteration #  1     ecut=    50.00 Ry     beta= 0.30
     Davidson diagonalization with overlap
     ethr =  1.00E-02,  avg # of iterations =  7.1

     total cpu time spent up to now is       19.1 secs

     total energy              =    -188.81006560 Ry
     estimated scf accuracy    <       0.30923605 Ry

     total magnetization       =     0.00 Bohr mag/cell
     absolute magnetization    =     0.23 Bohr mag/cell

     iteration #  2     ecut=    50.00 Ry     beta= 0.30
     Davidson diagonalization with overlap
     ethr =  1.72E-03,  avg # of iterations =  1.0

     total cpu time spent up to now is       25.4 secs

     total energy              =    -188.84933626 Ry
     estimated scf accuracy    <       0.14394078 Ry

     total magnetization       =    -0.00 Bohr mag/cell
     absolute magnetization    =     0.17 Bohr mag/cell

     iteration #  3     ecut=    50.00 Ry     beta= 0.30
     Davidson diagonalization with overlap
     ethr =  8.00E-04,  avg # of iterations =  1.0

     total cpu time spent up to now is       31.6 secs

     total energy              =    -188.85585731 Ry
     estimated scf accuracy    <       0.00970080 Ry

     total magnetization       =     0.00 Bohr mag/cell
     absolute magnetization    =     0.06 Bohr mag/cell

     iteration #  4     ecut=    50.00 Ry     beta= 0.30
     Davidson diagonalization with overlap
     ethr =  5.39E-05,  avg # of iterations =  1.5

     total cpu time spent up to now is       38.0 secs

     total energy              =    -188.85612466 Ry
     estimated scf accuracy    <       0.00050868 Ry

     total magnetization       =    -0.00 Bohr mag/cell
     absolute magnetization    =     0.02 Bohr mag/cell

     iteration #  5     ecut=    50.00 Ry     beta= 0.30
     Davidson diagonalization with overlap
     ethr =  2.83E-06,  avg # of iterations =  4.7

     total cpu time spent up to now is       45.5 secs

     total energy              =    -188.85619367 Ry
     estimated scf accuracy    <       0.00002013 Ry

     total magnetization       =    -0.00 Bohr mag/cell
     absolute magnetization    =     0.01 Bohr mag/cell

     iteration #  6     ecut=    50.00 Ry     beta= 0.30
     Davidson diagonalization with overlap
     ethr =  1.12E-07,  avg # of iterations =  1.3

     total cpu time spent up to now is       51.9 secs

     total energy              =    -188.85619829 Ry
     estimated scf accuracy    <       0.00000340 Ry

     total magnetization       =     0.00 Bohr mag/cell
     absolute magnetization    =     0.00 Bohr mag/cell

     iteration #  7     ecut=    50.00 Ry     beta= 0.30
     Davidson diagonalization with overlap
     ethr =  1.89E-08,  avg # of iterations =  2.0

     total cpu time spent up to now is       59.1 secs

     total energy              =    -188.85619989 Ry
     estimated scf accuracy    <       0.00000068 Ry

     total magnetization       =    -0.00 Bohr mag/cell
     absolute magnetization    =     0.00 Bohr mag/cell

     iteration #  8     ecut=    50.00 Ry     beta= 0.30
     Davidson diagonalization with overlap
     ethr =  3.76E-09,  avg # of iterations =  1.6

     total cpu time spent up to now is       65.9 secs

     total energy              =    -188.85620013 Ry
     estimated scf accuracy    <          8.2E-09 Ry

     total magnetization       =     0.00 Bohr mag/cell
     absolute magnetization    =     0.00 Bohr mag/cell

     iteration #  9     ecut=    50.00 Ry     beta= 0.30
     Davidson diagonalization with overlap
     ethr =  4.54E-11,  avg # of iterations =  2.2

     total cpu time spent up to now is       73.2 secs

     total energy              =    -188.85620014 Ry
     estimated scf accuracy    <          6.1E-09 Ry

     total magnetization       =    -0.00 Bohr mag/cell
     absolute magnetization    =     0.00 Bohr mag/cell

     iteration # 10     ecut=    50.00 Ry     beta= 0.30
     Davidson diagonalization with overlap
     ethr =  3.39E-11,  avg # of iterations =  1.6

     Magnetic moment per site  (integrated on atomic sphere of radius R)
     atom   1 (R=0.179)  charge= 10.7054  magn=  0.0000
     atom   2 (R=0.179)  charge=  2.2312  magn= -0.0000

     total cpu time spent up to now is       80.1 secs

     End of self-consistent calculation

 ------ SPIN UP ------------


          k = 0.0000 0.0000 0.0000 (  1243 PWs)   bands (ev):

    -4.0450  -3.9307  -3.9307  -3.9307  -3.7071  -3.7071  12.0896  12.0896
    12.0896  15.5297  15.6918  15.6918  15.6918  20.9799  23.1594  23.1594
    24.4905  24.4905  24.4905  28.4270  44.3971  44.3971  44.3971  45.2949
    45.2949  45.2949  45.7980  45.7980  46.0746  46.0746  46.0746  56.6606
    60.3388  60.3388  60.9358  60.9358

          k =-0.1250 0.1250-0.1250 (  1267 PWs)   bands (ev):

    -4.1304  -3.9195  -3.9195  -3.7082  -3.7082  -3.5948   9.8868  11.6563
    11.6563  15.2579  16.2697  16.2697  17.5380  21.7996  21.7996  22.0512
    23.8641  26.7719  26.7719  30.2326  39.8397  39.8397  40.8212  45.2779
    45.2779  45.5268  46.1237  46.1237  48.6807  51.1298  51.1298  55.8949
    56.4287  56.4287  58.6733  58.9105

          k =-0.2500 0.2500-0.2500 (  1260 PWs)   bands (ev):

    -4.1939  -3.8956  -3.8956  -3.7060  -3.7060  -2.7899   6.7703  10.9371
    10.9371  14.6729  16.8969  16.8969  19.8861  21.5975  21.5975  21.8557
    26.6244  30.2526  30.2526  33.7667  34.9610  34.9610  36.5275  45.8198
    45.8198  46.1859  46.8629  46.8629  48.8920  50.1818  50.1818  52.3929
    55.9176  55.9176  56.1423  56.4527

          k =-0.3750 0.3750-0.3750 (  1260 PWs)   bands (ev):

    -4.2384  -3.8784  -3.8784  -3.6966  -3.6966  -1.6131   4.0908  10.4224
    10.4224  14.2838  16.7178  16.7178  20.0299  23.4868  23.4868  23.6048
    30.1568  30.5283  30.5283  33.5971  34.4337  34.4337  38.1407  44.0038
    44.3162  44.3162  46.6308  46.6308  47.0924  48.1740  48.1740  49.2454
    53.7290  53.8093  53.8094  54.0819

          k = 0.5000-0.5000 0.5000 (  1260 PWs)   bands (ev):

    -4.2551  -3.8737  -3.8737  -3.6904  -3.6904  -0.7770   2.7418  10.2423
    10.2423  14.1545  16.5408  16.5408  19.7736  25.5166  26.0100  26.0100
    27.3162  27.3162  29.0928  36.1693  38.6098  38.6098  39.2457  39.6524
    39.6524  43.3772  44.0479  47.0080  47.0080  47.6237  48.9411  48.9411
    52.7222  52.7222  52.9769  52.9769

          k = 0.0000 0.2500 0.0000 (  1279 PWs)   bands (ev):

    -4.1412  -3.9095  -3.9095  -3.7282  -3.7007  -3.5015  10.3483  10.8869
    10.8869  14.7583  16.9458  17.3014  17.3014  20.2693  22.7136  23.4765
    25.1755  25.1755  26.4413  31.3960  39.5894  39.5894  40.3190  42.0299
    44.7465  45.9899  45.9899  48.5950  50.9178  50.9178  51.3697  54.7421
    55.5840  55.5840  56.7869  58.7674

          k =-0.1250 0.3750-0.1250 (  1276 PWs)   bands (ev):

    -4.1858  -3.8899  -3.8838  -3.7342  -3.6946  -2.8805   7.7696  10.1124
    10.3210  14.8663  16.7897  17.9379  18.3072  21.3377  23.1535  23.6215
    25.8474  27.7392  29.3460  34.5957  34.8651  35.6772  40.3552  40.5218
    42.4625  46.5904  47.2869  49.1028  50.9727  51.3112  52.3758  53.0537
    53.7189  54.2696  54.9267  56.0657

          k =-0.2500 0.5000-0.2500 (  1257 PWs)   bands (ev):

    -4.2254  -3.8745  -3.8630  -3.7274  -3.6879  -1.8162   5.0204   9.4885
     9.6889  14.9060  16.7960  18.1491  18.8350  22.4414  24.4606  24.5479
    29.0825  30.2279  31.6473  32.0424  33.5756  36.3014  38.6835  41.3827
    42.6585  43.4370  46.8547  47.4234  48.2513  48.6527  49.1739  50.5918
    52.4058  52.7690  54.4749  55.0657

          k = 0.6250-0.3750 0.6250 (  1251 PWs)   bands (ev):

    -4.2470  -3.8687  -3.8566  -3.7099  -3.6880  -0.7075   3.1024   8.8417
     9.7088  14.8605  16.5407  17.5676  20.8858  22.6877  25.9615  26.0715
    27.7970  28.4509  32.0758  35.0954  35.9635  37.9876  38.4816  41.0756
    42.1303  42.9612  43.4854  44.0313  46.6084  47.2496  48.2764  48.7440
    50.0532  52.8269  53.8451  53.8659

          k = 0.5000-0.2500 0.5000 (  1262 PWs)   bands (ev):

    -4.2414  -3.8694  -3.8619  -3.7020  -3.6997  -1.0158   3.5820   8.5681
    10.1549  15.1365  16.6205  17.2273  21.1267  22.8663  23.3469  25.9563
    28.3428  31.2245  31.2918  33.0676  35.3239  37.9140  40.2398  40.9336
    41.9872  42.1233  43.7034  44.5277  47.5130  48.0747  48.5885  48.9697
    50.2907  52.9306  54.1107  54.2198

          k = 0.3750-0.1250 0.3750 (  1267 PWs)   bands (ev):

    -4.2114  -3.8801  -3.8778  -3.7158  -3.7019  -2.2080   5.8959   8.7650
    10.9095  15.6300  17.0216  17.0718  19.4242  20.6451  23.2116  25.2522
    27.5634  29.7898  30.8705  33.5673  35.5143  35.9195  36.8948  41.0019
    42.8593  46.4433  46.4736  47.2220  48.4095  49.6905  50.0192  52.0743
    52.4839  54.1311  55.2692  55.9843

          k = 0.2500 0.0000 0.2500 (  1265 PWs)   bands (ev):

    -4.1697  -3.9059  -3.8975  -3.7161  -3.7059  -3.1383   8.4897   9.7063
    11.6471  16.0307  16.3776  16.6044  18.5407  20.4014  22.2876  23.7488
    25.3935  26.2904  29.8558  32.6667  35.0624  39.8422  39.9276  40.5518
    42.8232  46.2770  47.3246  50.6481  51.0168  51.4855  52.4679  53.1397
    53.9170  53.9843  56.0421  57.2090

          k = 0.0000 0.5000 0.0000 (  1283 PWs)   bands (ev):

    -4.2074  -3.8536  -3.8536  -3.7661  -3.6848  -2.4627   7.5980   9.2536
     9.2536  13.4365  15.6015  20.1021  20.1021  21.7862  24.4219  26.1481
    27.2831  27.2831  28.0816  34.7644  34.7644  35.8267  37.5714  38.1736
    45.3728  46.9727  46.9985  46.9985  48.0353  48.0353  50.4910  51.8830
    56.2820  56.2822  56.9622  56.9622

          k =-0.1250 0.6250-0.1250 (  1267 PWs)   bands (ev):

    -4.2327  -3.8374  -3.8267  -3.7726  -3.6777  -1.5679   5.7173   8.1934
     8.7595  13.6432  15.4373  20.1114  20.6488  24.4932  25.5826  26.4132
    28.7780  29.8541  30.6316  31.6659  32.0627  36.1843  37.7262  40.9369
    41.8724  43.0647  44.8374  45.5716  47.9922  48.1320  49.3454  51.5100
    52.6762  54.8988  55.7826  56.4111

          k = 0.7500-0.2500 0.7500 (  1247 PWs)   bands (ev):

    -4.2447  -3.8438  -3.8169  -3.7525  -3.6811  -0.4338   3.8598   7.0316
     8.7511  13.7943  17.5390  19.6774  19.9974  24.7320  26.1130  26.9943
    28.7149  28.9410  33.4226  33.7557  36.3485  36.8497  37.1612  37.2290
    40.7104  42.6536  42.8234  44.7811  46.0436  47.1814  48.5816  49.1834
    50.2060  51.4410  53.9097  55.3974

          k = 0.6250-0.1250 0.6250 (  1259 PWs)   bands (ev):

    -4.2412  -3.8538  -3.8239  -3.7281  -3.6991  -0.1781   3.5429   6.3784
     9.2285  14.2299  18.9570  19.3057  20.8940  22.5104  22.8280  26.4222
    30.7790  32.1655  32.4251  33.7117  37.0106  37.4282  38.6469  39.0528
    40.4199  41.8761  42.4014  42.7367  44.1495  45.6171  48.7611  49.1954
    50.2496  52.1216  53.8414  54.8177

          k = 0.5000 0.0000 0.5000 (  1264 PWs)   bands (ev):

    -4.2272  -3.8636  -3.8483  -3.7155  -3.7107  -1.2110   4.9686   6.6739
    10.0732  15.0972  18.3949  18.9199  19.1649  20.7413  24.6085  27.1657
    27.4468  29.4949  33.1281  35.5065  35.9285  36.6635  37.6760  40.0530
    40.7893  43.1909  43.2177  44.7139  45.5448  48.2431  48.5955  50.3274
    51.2809  55.3299  55.4214  56.0201

          k = 0.0000 0.7500 0.0000 (  1266 PWs)   bands (ev):

    -4.2544  -3.8076  -3.7936  -3.7936  -3.6684  -0.8751   4.8206   8.1483
     8.1483  12.6525  13.7601  23.0986  23.0986  25.0672  25.9337  29.2613
    30.4436  30.4436  30.9327  30.9327  31.1934  32.1690  35.5083  40.7437
    41.4084  41.4084  43.3530  45.4007  46.9017  48.7746  48.7746  52.8562
    54.3119  54.6183  54.6183  56.1566

          k = 0.8750-0.1250 0.8750 (  1255 PWs)   bands (ev):

    -4.2617  -3.8196  -3.7806  -3.7766  -3.6690   0.0763   3.6491   6.9950
     8.0245  12.9482  14.4268  23.0958  23.0989  26.0882  26.6148  28.6953
    28.8087  30.3042  32.3019  32.4481  33.7533  35.0783  35.8962  36.9722
    38.7692  39.7133  42.2736  44.0538  48.1043  49.0363  49.6632  51.3873
    51.9302  53.8491  54.6927  55.6034

          k = 0.7500 0.0000 0.7500 (  1250 PWs)   bands (ev):

    -4.2517  -3.8320  -3.7907  -3.7601  -3.6846   0.4742   3.3825   5.7681
     8.4146  13.3636  17.2259  21.7537  22.2733  23.0154  23.7967  29.9023
    30.4921  32.0256  32.2526  33.5509  34.7887  37.0969  37.1863  38.0267
    38.6674  40.4257  41.7385  42.3735  44.4282  46.8445  49.8844  50.0229
    50.6943  53.7445  54.1926  54.7804

          k = 0.0000-1.0000 0.0000 (  1266 PWs)   bands (ev):

    -4.2723  -3.8257  -3.7675  -3.7675  -3.6620   0.4487   3.0652   7.7631
     7.7631  12.4713  13.0583  25.5111  25.5111  27.0146  27.2192  27.6940
    27.6940  29.8333  30.1649  35.2792  35.3872  35.3872  35.5902  35.8821
    35.8821  36.6131  39.3928  47.2186  50.2204  50.2204  51.1335  52.7417
    52.7417  53.6035  53.8853  55.5012

          k =-0.2500 0.5000 0.0000 (  1270 PWs)   bands (ev):

    -4.2126  -3.8674  -3.8583  -3.7450  -3.6897  -2.1265   6.4767   8.1351
     9.9709  15.2140  16.7417  17.4809  19.6740  21.8848  24.9155  26.0509
    26.5656  29.0694  30.8581  32.2480  35.0879  37.0515  38.0165  40.8117
    41.2770  44.0139  45.5566  46.7331  49.5928  50.5435  51.8906  52.1272
    52.8506  53.5977  54.7312  55.5087

          k = 0.6250-0.3750 0.8750 (  1257 PWs)   bands (ev):

    -4.2342  -3.8583  -3.8375  -3.7368  -3.6900  -1.0048   4.4426   7.3465
     9.2011  15.6419  16.5947  18.2876  20.1770  23.2839  24.8341  26.3171
    28.8618  30.0177  31.5100  33.9005  36.0353  36.6241  38.3092  39.8825
    41.9247  42.3349  43.3982  44.9519  45.3744  47.5599  48.7193  50.0483
    51.8330  52.7759  53.8252  54.4811

          k = 0.5000-0.2500 0.7500 (  1264 PWs)   bands (ev):

    -4.2430  -3.8581  -3.8302  -3.7254  -3.6941  -0.2220   3.2486   7.2103
     8.8411  15.7878  16.0946  19.7632  21.1533  21.8782  24.8638  26.7924
    28.0267  32.1352  33.1355  33.9806  35.4743  37.8781  38.8776  39.7597
    41.4241  41.5974  42.6338  42.8706  45.7596  47.1187  47.7130  47.9593
    48.8487  51.7082  53.6802  54.6315

          k = 0.7500-0.2500 1.0000 (  1256 PWs)   bands (ev):

    -4.2464  -3.8220  -3.8147  -3.7680  -3.6771  -0.6122   4.5512   7.1537
     7.9663  14.3654  15.2291  19.6349  23.0634  24.4435  26.5395  28.3432
    28.7529  29.5446  31.0193  32.7598  34.3899  35.1503  37.8817  38.5105
    40.1195  42.1854  44.3881  45.0619  46.0939  46.1568  48.3074  50.8143
    51.8706  52.7731  54.2453  56.3252

          k = 0.6250-0.1250 0.8750 (  1251 PWs)   bands (ev):

    -4.2468  -3.8340  -3.8058  -3.7486  -3.6888   0.3022   3.5651   6.1682
     7.6810  14.9009  17.4086  18.9206  21.5872  23.6532  26.8870  28.0805
    28.8299  31.8513  32.6392  33.9402  34.7744  37.1400  37.2954  38.6110
    39.8811  40.7253  42.4974  43.8154  45.5530  45.7434  46.5336  49.2214
    50.1575  50.8955  52.3663  55.6970

          k = 0.5000 0.0000 0.7500 (  1254 PWs)   bands (ev):

    -4.2405  -3.8466  -3.8125  -3.7371  -3.6986   0.0021   3.8747   5.9314
     8.2419  15.5425  17.9150  18.5873  21.1010  22.8513  24.3141  28.7366
    29.0912  31.2762  32.8469  34.3407  36.6886  37.3649  37.7125  38.9148
    39.9991  40.7708  42.4785  44.1174  45.0344  46.3347  47.0680  47.2581
    49.5363  50.9292  54.3711  55.5976

          k =-0.2500-1.0000 0.0000 (  1262 PWs)   bands (ev):

    -4.2598  -3.8165  -3.7978  -3.7581  -3.6749   0.5694   3.2297   6.9942
     7.0381  14.0927  14.6988  22.0884  22.4657  26.3937  27.0415  28.3780
    28.5682  32.1175  33.1278  33.2941  33.5016  34.7617  34.9960  38.7122
    39.4073  39.5606  40.7360  43.3650  46.0318  48.3270  49.2247  50.3887
    52.1866  52.8383  53.9673  55.6182

          k =-0.5000-1.0000 0.0000 (  1232 PWs)   bands (ev):

    -4.2451  -3.8287  -3.8088  -3.7382  -3.6962   0.6987   3.4368   6.3375
     6.4758  16.7978  18.0715  18.3293  18.5798  26.5416  27.1428  28.2757
    29.0402  31.2692  32.8122  33.0774  34.0141  37.3223  38.3417  38.4417
    41.2264  42.4416  42.5888  44.1194  44.2251  44.8047  45.1537  45.3883
    47.4668  53.5051  55.2908  55.5644

 ------ SPIN DOWN ----------


          k = 0.0000 0.0000 0.0000 (  1243 PWs)   bands (ev):

    -4.0450  -3.9307  -3.9307  -3.9307  -3.7071  -3.7071  12.0896  12.0896
    12.0896  15.5298  15.6918  15.6918  15.6918  20.9799  23.1594  23.1594
    24.4905  24.4905  24.4905  28.4270  44.3971  44.3971  44.3971  45.2949
    45.2949  45.2949  45.7980  45.7980  46.0746  46.0746  46.0746  56.6606
    60.3388  60.3388  60.9358  60.9358

          k =-0.1250 0.1250-0.1250 (  1267 PWs)   bands (ev):

    -4.1305  -3.9195  -3.9195  -3.7082  -3.7082  -3.5948   9.8868  11.6563
    11.6563  15.2579  16.2697  16.2697  17.5380  21.7996  21.7996  22.0511
    23.8641  26.7719  26.7719  30.2326  39.8397  39.8397  40.8212  45.2779
    45.2779  45.5268  46.1237  46.1237  48.6807  51.1298  51.1298  55.8949
    56.4287  56.4287  58.6732  58.9105

          k =-0.2500 0.2500-0.2500 (  1260 PWs)   bands (ev):

    -4.1939  -3.8956  -3.8956  -3.7060  -3.7060  -2.7899   6.7703  10.9371
    10.9371  14.6729  16.8970  16.8970  19.8861  21.5974  21.5974  21.8557
    26.6244  30.2526  30.2526  33.7667  34.9610  34.9610  36.5275  45.8198
    45.8198  46.1859  46.8629  46.8629  48.8920  50.1818  50.1818  52.3929
    55.9176  55.9176  56.1423  56.4527

          k =-0.3750 0.3750-0.3750 (  1260 PWs)   bands (ev):

    -4.2384  -3.8784  -3.8784  -3.6966  -3.6966  -1.6132   4.0908  10.4224
    10.4224  14.2838  16.7178  16.7178  20.0299  23.4868  23.4868  23.6048
    30.1568  30.5283  30.5283  33.5971  34.4337  34.4337  38.1407  44.0038
    44.3162  44.3162  46.6308  46.6308  47.0924  48.1740  48.1740  49.2454
    53.7289  53.8093  53.8093  54.0819

          k = 0.5000-0.5000 0.5000 (  1260 PWs)   bands (ev):

    -4.2551  -3.8737  -3.8737  -3.6904  -3.6904  -0.7770   2.7418  10.2423
    10.2423  14.1545  16.5408  16.5408  19.7736  25.5166  26.0100  26.0100
    27.3162  27.3162  29.0928  36.1693  38.6098  38.6098  39.2457  39.6524
    39.6524  43.3772  44.0479  47.0080  47.0080  47.6237  48.9411  48.9411
    52.7222  52.7222  52.9769  52.9769

          k = 0.0000 0.2500 0.0000 (  1279 PWs)   bands (ev):

    -4.1412  -3.9095  -3.9095  -3.7282  -3.7007  -3.5015  10.3483  10.8869
    10.8869  14.7583  16.9458  17.3014  17.3014  20.2693  22.7136  23.4764
    25.1755  25.1755  26.4413  31.3960  39.5894  39.5894  40.3190  42.0299
    44.7465  45.9899  45.9899  48.5950  50.9178  50.9178  51.3697  54.7421
    55.5840  55.5840  56.7869  58.7674

          k =-0.1250 0.3750-0.1250 (  1276 PWs)   bands (ev):

    -4.1858  -3.8900  -3.8838  -3.7342  -3.6946  -2.8805   7.7696  10.1124
    10.3210  14.8663  16.7897  17.9379  18.3072  21.3377  23.1535  23.6215
    25.8474  27.7392  29.3460  34.5957  34.8651  35.6772  40.3552  40.5218
    42.4625  46.5904  47.2869  49.1028  50.9727  51.3112  52.3758  53.0537
    53.7189  54.2696  54.9267  56.0658

          k =-0.2500 0.5000-0.2500 (  1257 PWs)   bands (ev):

    -4.2254  -3.8745  -3.8630  -3.7274  -3.6879  -1.8162   5.0204   9.4885
     9.6889  14.9060  16.7960  18.1491  18.8350  22.4414  24.4606  24.5479
    29.0826  30.2279  31.6473  32.0424  33.5756  36.3014  38.6835  41.3827
    42.6585  43.4370  46.8547  47.4234  48.2513  48.6527  49.1739  50.5918
    52.4058  52.7690  54.4749  55.0657

          k = 0.6250-0.3750 0.6250 (  1251 PWs)   bands (ev):

    -4.2470  -3.8687  -3.8566  -3.7099  -3.6881  -0.7075   3.1024   8.8417
     9.7088  14.8605  16.5407  17.5676  20.8858  22.6877  25.9615  26.0715
    27.7970  28.4509  32.0758  35.0954  35.9635  37.9876  38.4816  41.0756
    42.1303  42.9612  43.4854  44.0313  46.6084  47.2496  48.2764  48.7440
    50.0532  52.8269  53.8451  53.8659

          k = 0.5000-0.2500 0.5000 (  1262 PWs)   bands (ev):

    -4.2414  -3.8694  -3.8620  -3.7020  -3.6997  -1.0158   3.5820   8.5681
    10.1549  15.1365  16.6205  17.2273  21.1267  22.8663  23.3469  25.9563
    28.3428  31.2245  31.2918  33.0676  35.3239  37.9140  40.2398  40.9336
    41.9872  42.1233  43.7034  44.5277  47.5130  48.0747  48.5885  48.9697
    50.2907  52.9306  54.1107  54.2198

          k = 0.3750-0.1250 0.3750 (  1267 PWs)   bands (ev):

    -4.2114  -3.8801  -3.8778  -3.7158  -3.7019  -2.2080   5.8959   8.7650
    10.9095  15.6300  17.0216  17.0718  19.4242  20.6451  23.2116  25.2522
    27.5634  29.7898  30.8705  33.5673  35.5143  35.9195  36.8948  41.0019
    42.8593  46.4433  46.4736  47.2220  48.4095  49.6905  50.0192  52.0743
    52.4839  54.1311  55.2692  55.9843

          k = 0.2500 0.0000 0.2500 (  1265 PWs)   bands (ev):

    -4.1697  -3.9059  -3.8975  -3.7161  -3.7059  -3.1383   8.4897   9.7063
    11.6471  16.0307  16.3776  16.6044  18.5407  20.4014  22.2876  23.7488
    25.3935  26.2904  29.8558  32.6667  35.0624  39.8422  39.9276  40.5518
    42.8232  46.2770  47.3246  50.6481  51.0168  51.4855  52.4679  53.1397
    53.9170  53.9843  56.0421  57.2090

          k = 0.0000 0.5000 0.0000 (  1283 PWs)   bands (ev):

    -4.2074  -3.8536  -3.8536  -3.7661  -3.6848  -2.4627   7.5980   9.2536
     9.2536  13.4365  15.6015  20.1021  20.1021  21.7862  24.4219  26.1481
    27.2831  27.2831  28.0816  34.7644  34.7644  35.8267  37.5714  38.1736
    45.3728  46.9727  46.9985  46.9985  48.0353  48.0353  50.4910  51.8829
    56.2820  56.2822  56.9622  56.9622

          k =-0.1250 0.6250-0.1250 (  1267 PWs)   bands (ev):

    -4.2327  -3.8374  -3.8268  -3.7726  -3.6777  -1.5679   5.7173   8.1934
     8.7595  13.6432  15.4373  20.1114  20.6488  24.4932  25.5826  26.4132
    28.7780  29.8541  30.6316  31.6659  32.0627  36.1843  37.7262  40.9369
    41.8724  43.0647  44.8374  45.5716  47.9922  48.1319  49.3454  51.5100
    52.6762  54.8988  55.7826  56.4110

          k = 0.7500-0.2500 0.7500 (  1247 PWs)   bands (ev):

    -4.2447  -3.8438  -3.8169  -3.7526  -3.6811  -0.4338   3.8598   7.0316
     8.7511  13.7943  17.5390  19.6774  19.9974  24.7320  26.1130  26.9943
    28.7149  28.9410  33.4226  33.7557  36.3485  36.8497  37.1612  37.2290
    40.7104  42.6536  42.8234  44.7811  46.0436  47.1814  48.5816  49.1834
    50.2060  51.4410  53.9097  55.3974

          k = 0.6250-0.1250 0.6250 (  1259 PWs)   bands (ev):

    -4.2413  -3.8538  -3.8239  -3.7281  -3.6991  -0.1781   3.5429   6.3784
     9.2285  14.2299  18.9570  19.3057  20.8940  22.5104  22.8280  26.4222
    30.7790  32.1655  32.4251  33.7117  37.0106  37.4282  38.6469  39.0528
    40.4199  41.8761  42.4014  42.7367  44.1495  45.6171  48.7611  49.1954
    50.2496  52.1216  53.8414  54.8177

          k = 0.5000 0.0000 0.5000 (  1264 PWs)   bands (ev):

    -4.2272  -3.8636  -3.8483  -3.7155  -3.7107  -1.2110   4.9686   6.6739
    10.0732  15.0972  18.3949  18.9199  19.1649  20.7413  24.6085  27.1657
    27.4468  29.4949  33.1281  35.5065  35.9285  36.6635  37.6760  40.0530
    40.7893  43.1909  43.2177  44.7139  45.5448  48.2431  48.5955  50.3274
    51.2809  55.3299  55.4214  56.0201

          k = 0.0000 0.7500 0.0000 (  1266 PWs)   bands (ev):

    -4.2545  -3.8076  -3.7936  -3.7936  -3.6684  -0.8751   4.8206   8.1483
     8.1483  12.6525  13.7601  23.0987  23.0987  25.0672  25.9337  29.2613
    30.4436  30.4436  30.9327  30.9327  31.1934  32.1690  35.5083  40.7437
    41.4084  41.4084  43.3529  45.4007  46.9017  48.7746  48.7746  52.8562
    54.3119  54.6183  54.6183  56.1566

          k = 0.8750-0.1250 0.8750 (  1255 PWs)   bands (ev):

    -4.2617  -3.8196  -3.7806  -3.7766  -3.6691   0.0763   3.6491   6.9950
     8.0245  12.9482  14.4268  23.0958  23.0989  26.0882  26.6148  28.6953
    28.8087  30.3042  32.3019  32.4481  33.7532  35.0783  35.8962  36.9722
    38.7692  39.7133  42.2736  44.0538  48.1043  49.0363  49.6632  51.3873
    51.9302  53.8491  54.6927  55.6034

          k = 0.7500 0.0000 0.7500 (  1250 PWs)   bands (ev):

    -4.2517  -3.8320  -3.7907  -3.7602  -3.6846   0.4742   3.3825   5.7681
     8.4146  13.3636  17.2259  21.7537  22.2733  23.0154  23.7967  29.9023
    30.4921  32.0256  32.2526  33.5509  34.7887  37.0969  37.1863  38.0267
    38.6674  40.4257  41.7385  42.3735  44.4282  46.8445  49.8844  50.0229
    50.6943  53.7444  54.1926  54.7802

          k = 0.0000-1.0000 0.0000 (  1266 PWs)   bands (ev):

    -4.2724  -3.8258  -3.7675  -3.7675  -3.6620   0.4487   3.0652   7.7631
     7.7631  12.4713  13.0583  25.5111  25.5111  27.0146  27.2192  27.6940
    27.6940  29.8333  30.1649  35.2792  35.3872  35.3872  35.5902  35.8821
    35.8821  36.6130  39.3928  47.2186  50.2204  50.2204  51.1335  52.7417
    52.7417  53.6035  53.8853  55.5012

          k =-0.2500 0.5000 0.0000 (  1270 PWs)   bands (ev):

    -4.2126  -3.8674  -3.8583  -3.7451  -3.6897  -2.1265   6.4767   8.1351
     9.9709  15.2140  16.7417  17.4809  19.6740  21.8848  24.9155  26.0509
    26.5656  29.0694  30.8581  32.2480  35.0878  37.0515  38.0165  40.8117
    41.2770  44.0139  45.5566  46.7331  49.5928  50.5435  51.8906  52.1272
    52.8506  53.5977  54.7312  55.5080

          k = 0.6250-0.3750 0.8750 (  1257 PWs)   bands (ev):

    -4.2342  -3.8583  -3.8375  -3.7368  -3.6900  -1.0048   4.4426   7.3465
     9.2011  15.6419  16.5947  18.2876  20.1770  23.2839  24.8341  26.3171
    28.8618  30.0177  31.5100  33.9005  36.0353  36.6241  38.3092  39.8825
    41.9247  42.3349  43.3982  44.9519  45.3744  47.5599  48.7193  50.0483
    51.8330  52.7759  53.8252  54.4810

          k = 0.5000-0.2500 0.7500 (  1264 PWs)   bands (ev):

    -4.2430  -3.8581  -3.8302  -3.7254  -3.6941  -0.2220   3.2486   7.2103
     8.8411  15.7878  16.0946  19.7633  21.1533  21.8782  24.8638  26.7924
    28.0267  32.1352  33.1355  33.9806  35.4743  37.8781  38.8776  39.7597
    41.4241  41.5974  42.6338  42.8706  45.7596  47.1187  47.7130  47.9593
    48.8487  51.7081  53.6802  54.6314

          k = 0.7500-0.2500 1.0000 (  1256 PWs)   bands (ev):

    -4.2464  -3.8221  -3.8147  -3.7681  -3.6771  -0.6122   4.5512   7.1537
     7.9663  14.3654  15.2291  19.6349  23.0634  24.4435  26.5395  28.3432
    28.7529  29.5446  31.0193  32.7598  34.3899  35.1503  37.8817  38.5105
    40.1195  42.1854  44.3881  45.0619  46.0939  46.1568  48.3074  50.8143
    51.8706  52.7731  54.2453  56.3252

          k = 0.6250-0.1250 0.8750 (  1251 PWs)   bands (ev):

    -4.2468  -3.8340  -3.8058  -3.7486  -3.6888   0.3022   3.5651   6.1682
     7.6810  14.9009  17.4086  18.9206  21.5872  23.6532  26.8870  28.0805
    28.8299  31.8513  32.6392  33.9402  34.7744  37.1400  37.2953  38.6110
    39.8811  40.7253  42.4974  43.8154  45.5530  45.7434  46.5336  49.2213
    50.1575  50.8955  52.3663  55.6970

          k = 0.5000 0.0000 0.7500 (  1254 PWs)   bands (ev):

    -4.2405  -3.8466  -3.8125  -3.7371  -3.6986   0.0021   3.8747   5.9314
     8.2419  15.5425  17.9150  18.5873  21.1010  22.8513  24.3141  28.7366
    29.0912  31.2762  32.8469  34.3407  36.6886  37.3649  37.7124  38.9147
    39.9991  40.7708  42.4785  44.1174  45.0344  46.3347  47.0680  47.2581
    49.5363  50.9292  54.3711  55.5976

          k =-0.2500-1.0000 0.0000 (  1262 PWs)   bands (ev):

    -4.2598  -3.8166  -3.7978  -3.7581  -3.6749   0.5694   3.2297   6.9942
     7.0381  14.0927  14.6987  22.0884  22.4657  26.3937  27.0415  28.3780
    28.5682  32.1175  33.1278  33.2941  33.5016  34.7617  34.9960  38.7122
    39.4073  39.5606  40.7360  43.3650  46.0318  48.3270  49.2246  50.3887
    52.1866  52.8383  53.9673  55.6182

          k =-0.5000-1.0000 0.0000 (  1232 PWs)   bands (ev):

    -4.2451  -3.8287  -3.8088  -3.7382  -3.6962   0.6987   3.4368   6.3375
     6.4758  16.7978  18.0714  18.3293  18.5798  26.5416  27.1428  28.2757
    29.0402  31.2692  32.8122  33.0774  34.0142  37.3223  38.3417  38.4417
    41.2264  42.4416  42.5888  44.1194  44.2251  44.8047  45.1536  45.3883
    47.4668  53.5051  55.2904  55.5557

     highest occupied, lowest unoccupied level (ev):    12.0896   12.4713

!    total energy              =    -188.85620014 Ry
     estimated scf accuracy    <          1.6E-10 Ry

     The total energy is the sum of the following terms:
     one-electron contribution =     -99.10032854 Ry
     hartree contribution      =      68.16093572 Ry
     xc contribution           =     -52.74620867 Ry
     ewald contribution        =    -105.17059866 Ry

     total magnetization       =    -0.00 Bohr mag/cell
     absolute magnetization    =     0.00 Bohr mag/cell

     convergence has been achieved in  10 iterations


     Computing stress (Cartesian axis) and pressure

          total   stress  (Ry/bohr**3)                   (kbar)     P=      596.67
   0.00405610   0.00000000   0.00000000          596.67        0.00        0.00
  -0.00000000   0.00405610  -0.00000000           -0.00      596.67       -0.00
   0.00000000  -0.00000000   0.00405610            0.00       -0.00      596.67


     BFGS Geometry Optimization
     Energy error            =      2.5E-01 Ry
     Gradient error          =      0.0E+00 Ry/Bohr
     Cell gradient error     =      6.0E+02 kbar

     number of scf cycles    =   1
     number of bfgs steps    =   0

     enthalpy           new  =    -188.8562001429 Ry

     new trust radius        =       0.2945099724 bohr
ibrav =      2
 celldm(1) =     10.40671199
Input lattice vectors:
    -0.55070127    -0.00000000     0.55070127
     0.00000000     0.55070127     0.55070127
    -0.55070127     0.55070127    -0.00000000
New lattice vectors in INITIAL alat:
    -0.55070127     0.00000000     0.55070127
     0.00000000     0.55070127     0.55070127
    -0.55070127     0.55070127     0.00000000
New lattice vectors in NEW alat (for information only):
    -0.50000000     0.00000000     0.50000000
     0.00000000     0.50000000     0.50000000
    -0.50000000     0.50000000     0.00000000
Discrepancy in bohr =     0.000000    0.000000    0.000000

Atomic positions rescaled with new alat:
Ga               0.0000000000        0.0000000000        0.0000000000    0   0   0
As               0.2500000000        0.2500000000        0.2500000000    0   0   0
     new conv_thr            =       0.0000000010 Ry

     new unit-cell volume =    281.76083 a.u.^3 (    41.75265 Ang^3 )
     density =      5.75264 g/cm^3

CELL_PARAMETERS (alat=  9.44860000)
  -0.550701267   0.000000000   0.550701267
   0.000000000   0.550701267   0.550701267
  -0.550701267   0.550701267   0.000000000

ATOMIC_POSITIONS (alat)
Ga               0.0000000000        0.0000000000        0.0000000000    0   0   0
As               0.2753506336        0.2753506336        0.2753506336    0   0   0



     Writing config-only to output data dir ./outdir/GaAs.save/ :
     XML data file
     NEW-OLD atomic charge density approx. for the potential
     New effective cutoffs (rho, wfc):  329.53   41.21
     Generating pointlists ...

     total cpu time spent up to now is       83.4 secs

     Self-consistent Calculation

     iteration #  1     ecut=    50.00 Ry     beta= 0.30
     Davidson diagonalization with overlap
     ethr =  1.00E-06,  avg # of iterations =  8.9

     total cpu time spent up to now is      100.9 secs

     total energy              =    -188.98794598 Ry
     estimated scf accuracy    <       0.00115175 Ry

     total magnetization       =     0.00 Bohr mag/cell
     absolute magnetization    =     0.00 Bohr mag/cell

     iteration #  2     ecut=    50.00 Ry     beta= 0.30
     Davidson diagonalization with overlap
     ethr =  6.40E-06,  avg # of iterations =  1.0

     total cpu time spent up to now is      107.1 secs

     total energy              =    -188.98815170 Ry
     estimated scf accuracy    <       0.00038700 Ry

     total magnetization       =     0.00 Bohr mag/cell
     absolute magnetization    =     0.00 Bohr mag/cell

     iteration #  3     ecut=    50.00 Ry     beta= 0.30
     Davidson diagonalization with overlap
     ethr =  2.15E-06,  avg # of iterations =  1.4

     total cpu time spent up to now is      113.7 secs

     total energy              =    -188.98822750 Ry
     estimated scf accuracy    <       0.00008230 Ry

     total magnetization       =     0.00 Bohr mag/cell
     absolute magnetization    =     0.00 Bohr mag/cell

     iteration #  4     ecut=    50.00 Ry     beta= 0.30
     Davidson diagonalization with overlap
     ethr =  4.57E-07,  avg # of iterations =  1.8

     total cpu time spent up to now is      120.5 secs

     total energy              =    -188.98823627 Ry
     estimated scf accuracy    <       0.00000245 Ry

     total magnetization       =     0.00 Bohr mag/cell
     absolute magnetization    =     0.00 Bohr mag/cell

     iteration #  5     ecut=    50.00 Ry     beta= 0.30
     Davidson diagonalization with overlap
     ethr =  1.36E-08,  avg # of iterations =  1.1

     total cpu time spent up to now is      126.7 secs

     total energy              =    -188.98823671 Ry
     estimated scf accuracy    <       0.00000013 Ry

     total magnetization       =    -0.00 Bohr mag/cell
     absolute magnetization    =     0.00 Bohr mag/cell

     iteration #  6     ecut=    50.00 Ry     beta= 0.30
     Davidson diagonalization with overlap
     ethr =  7.44E-10,  avg # of iterations =  2.0

     total cpu time spent up to now is      133.8 secs

     total energy              =    -188.98823675 Ry
     estimated scf accuracy    <       0.00000001 Ry

     total magnetization       =     0.00 Bohr mag/cell
     absolute magnetization    =     0.00 Bohr mag/cell

     iteration #  7     ecut=    50.00 Ry     beta= 0.30
     Davidson diagonalization with overlap
     ethr =  6.64E-11,  avg # of iterations =  1.8

     total cpu time spent up to now is      140.4 secs

     total energy              =    -188.98823675 Ry
     estimated scf accuracy    <          1.6E-09 Ry

     total magnetization       =    -0.00 Bohr mag/cell
     absolute magnetization    =     0.00 Bohr mag/cell

     iteration #  8     ecut=    50.00 Ry     beta= 0.30
     Davidson diagonalization with overlap
     ethr =  8.80E-12,  avg # of iterations =  2.0

     Magnetic moment per site  (integrated on atomic sphere of radius R)
     atom   1 (R=0.179)  charge= 10.5144  magn=  0.0000
     atom   2 (R=0.179)  charge=  2.0408  magn= -0.0000

     total cpu time spent up to now is      147.4 secs

     End of self-consistent calculation

 ------ SPIN UP ------------


          k = 0.0000 0.0000 0.0000 (  1243 PWs)   bands (ev):

    -7.3091  -7.3091  -7.3091  -7.2074  -7.2074  -5.7644   7.5863   7.5863
     7.5863   8.6459  11.2928  11.2928  11.2928  15.3344  17.9339  17.9339
    19.3376  19.3376  19.3376  22.2750  34.6751  34.6751  34.6751  35.3944
    35.3944  35.3944  36.5777  36.5777  36.5777  36.6129  36.6129  44.4581
    48.9871  48.9871  49.0075  49.0075

          k =-0.1135 0.1135-0.1135 (  1267 PWs)   bands (ev):

    -7.3305  -7.3044  -7.3044  -7.2076  -7.2076  -5.5567   5.6170   7.3158
     7.3158   9.5197  11.6839  11.6839  11.9013  16.3418  16.9609  16.9609
    18.6014  21.0719  21.0719  23.8358  31.2982  31.3661  31.3661  35.4728
    35.4728  36.1575  36.1575  36.7653  38.0617  40.9437  40.9437  44.0882
    45.4718  45.4718  46.1543  47.4292

          k =-0.2270 0.2270-0.2270 (  1260 PWs)   bands (ev):

    -7.3735  -7.2943  -7.2943  -7.2068  -7.2068  -4.9795   3.2418   6.8226
     6.8226   9.2313  12.2277  12.2277  13.8760  16.6271  16.7193  16.7193
    19.9558  23.8887  23.8887  26.7512  27.3783  27.3783  27.7610  36.0153
    36.0153  36.5739  36.5739  37.2960  38.6216  40.3801  40.3801  40.6965
    44.7658  44.7658  45.3505  45.3505

          k =-0.3405 0.3405-0.3405 (  1260 PWs)   bands (ev):

    -7.4091  -7.2864  -7.2864  -7.2036  -7.2036  -4.1942   1.3059   6.4495
     6.4495   8.8656  12.2630  12.2630  15.3369  16.9105  18.0483  18.0483
    22.0721  23.7256  23.7256  25.7397  27.3451  27.3451  30.4599  34.2505
    35.4013  35.4013  36.8248  36.8248  37.4360  37.4360  38.0170  39.5061
    42.3075  42.8928  42.8928  43.4725

          k = 0.4540-0.4540 0.4540 (  1260 PWs)   bands (ev):

    -7.4224  -7.2839  -7.2839  -7.2014  -7.2014  -3.7285   0.4474   6.3164
     6.3164   8.7334  12.1837  12.1837  15.2988  18.5167  19.9397  19.9397
    20.8772  21.1961  21.1961  27.9667  30.3374  30.8287  30.8287  31.5777
    31.5777  34.7902  35.2700  37.2058  37.2058  37.7032  37.7032  38.4311
    42.0367  42.0367  42.7057  42.7057

          k = 0.0000 0.2270 0.0000 (  1279 PWs)   bands (ev):

    -7.3410  -7.3000  -7.3000  -7.2116  -7.2047  -5.4885   5.6641   6.8306
     6.8306  10.3122  10.6645  12.3753  12.3753  15.6087  16.7441  18.2070
    19.9074  19.9074  20.7117  24.7794  30.8243  30.8243  32.1491  32.2719
    35.5051  36.0320  36.0320  38.3540  40.4647  40.4647  41.3956  43.5817
    44.5044  44.5044  45.1810  47.0600

          k =-0.1135 0.3405-0.1135 (  1276 PWs)   bands (ev):

    -7.3744  -7.2914  -7.2893  -7.2150  -7.2022  -5.0345   3.8489   6.2873
     6.2874  10.2673  11.1544  13.1730  13.2126  15.5948  17.9683  17.9936
    19.7750  21.9107  23.2018  27.2469  27.3300  27.5286  31.0932  32.1040
    33.1500  36.4966  37.4999  39.0781  40.6710  40.8814  41.8556  41.9637
    42.8362  43.5857  43.8132  44.7747

          k =-0.2270 0.4540-0.2270 (  1257 PWs)   bands (ev):

    -7.4069  -7.2845  -7.2804  -7.2135  -7.1999  -4.3018   1.8925   5.6422
     5.9710   9.9923  11.7953  13.2611  13.8707  17.1354  18.0774  18.9254
    21.6305  23.4953  24.7013  25.0758  26.6579  27.9790  30.8030  32.7351
    33.2239  34.2267  37.0701  37.1586  38.5234  38.7366  39.4421  40.0542
    42.0444  42.1732  43.5238  44.0251

          k = 0.5675-0.3405 0.5675 (  1251 PWs)   bands (ev):

    -7.4241  -7.2812  -7.2773  -7.2079  -7.2003  -3.6500   0.6421   5.1725
     5.9673   9.8110  11.8755  12.9290  15.5374  17.3576  19.4288  19.9235
    20.8956  21.5522  24.4382  27.2296  28.6268  29.8629  30.6233  32.3341
    33.2659  33.9764  34.3598  34.8416  37.4213  37.8545  38.1880  38.4131
    39.3194  42.2941  43.0537  43.1497

          k = 0.4540-0.2270 0.4540 (  1262 PWs)   bands (ev):

    -7.4194  -7.2815  -7.2799  -7.2053  -7.2040  -3.8166   0.9357   5.0104
     6.2673   9.8704  12.0847  12.6620  15.6169  17.5249  17.5381  19.6585
    21.2825  23.5605  24.2745  25.7417  27.7338  30.1920  31.7328  32.4892
    33.1099  33.4888  34.0050  35.5130  37.6548  38.1648  38.5461  38.8610
    39.9323  42.3578  43.2995  43.4440

          k = 0.3405-0.1135 0.3405 (  1267 PWs)   bands (ev):

    -7.3943  -7.2882  -7.2858  -7.2103  -7.2040  -4.5674   2.5054   5.2361
     6.7819  10.1352  12.3671  12.3768  13.9152  15.9408  17.5715  19.0812
    20.8797  23.4062  23.9132  26.5450  27.5952  27.8624  29.1552  32.3227
    33.3251  36.7022  36.8665  37.4702  38.0341  39.5556  40.2661  41.3087
    42.0109  42.7841  44.4649  44.8598

          k = 0.2270 0.0000 0.2270 (  1265 PWs)   bands (ev):

    -7.3583  -7.2990  -7.2946  -7.2105  -7.2054  -5.2262   4.3819   6.0299
     7.2769  10.2200  11.7044  11.8145  13.1645  15.8593  16.9644  17.6575
    19.8498  20.6912  23.5533  25.8542  27.2281  30.5799  31.4930  31.9273
    33.4285  36.3089  37.3342  40.1760  40.7153  41.2674  41.4912  42.6016
    42.6569  43.4704  44.6817  45.9927

          k = 0.0000 0.4540 0.0000 (  1283 PWs)   bands (ev):

    -7.3988  -7.2771  -7.2771  -7.2241  -7.1981  -4.7194   3.4173   5.6837
     5.6837   9.4117  10.9725  14.4733  14.4733  15.2853  19.0220  19.4631
    21.6368  21.6368  22.2220  26.8523  26.8523  28.5317  28.8734  29.8039
    36.1463  36.8668  36.8668  37.3651  38.4548  38.4548  39.9344  40.8003
    44.9733  45.5160  45.5417  45.5417

          k =-0.1135 0.5675-0.1135 (  1267 PWs)   bands (ev):

    -7.4226  -7.2690  -7.2663  -7.2276  -7.1954  -4.0982   2.1090   4.8805
     5.3226   9.5648  10.9455  14.2489  15.0698  17.6014  19.8193  20.1936
    22.0012  23.5485  23.9121  24.4489  25.3855  28.5168  28.6044  32.3995
    33.3252  33.9201  35.9130  36.2668  37.5589  38.0239  39.2123  40.7387
    42.4597  43.3176  44.3948  45.2947

          k = 0.6809-0.2270 0.6809 (  1247 PWs)   bands (ev):

    -7.4343  -7.2697  -7.2621  -7.2226  -7.1969  -3.4134   0.9494   3.9822
     5.3069   9.6798  12.4770  13.9666  14.7488  18.4280  20.0693  20.7018
    21.2677  22.2372  25.9791  26.8687  27.9257  29.0103  29.2292  29.4228
    31.5690  33.8928  34.1897  35.3690  36.6887  37.7039  38.5750  38.7451
    40.0292  40.9410  43.0296  44.4049

          k = 0.5675-0.1135 0.5675 (  1259 PWs)   bands (ev):

    -7.4315  -7.2739  -7.2652  -7.2139  -7.2036  -3.2956   0.7926   3.5194
     5.6375   9.9478  13.2720  14.2025  15.2244  16.4432  17.5356  20.5503
    23.1170  24.9748  24.9968  25.8983  29.0052  29.2417  30.5182  30.9471
    31.1858  33.5112  33.6986  34.2766  35.0870  36.4752  38.3317  38.7696
    39.8649  41.5632  43.1168  44.1957

          k = 0.4540 0.0000 0.4540 (  1264 PWs)   bands (ev):

    -7.4165  -7.2789  -7.2754  -7.2097  -7.2069  -3.8974   1.6623   3.8176
     6.2204  10.4136  13.3821  13.3882  13.6082  16.0224  18.3503  20.8193
    21.3187  22.4850  25.8260  27.0570  27.9939  28.7532  30.0957  31.1397
    32.3343  34.0557  34.6813  35.8495  35.8994  37.6866  38.5544  40.1220
    40.6754  44.5411  44.7166  44.7698

          k = 0.0000 0.6809 0.0000 (  1266 PWs)   bands (ev):

    -7.4425  -7.2535  -7.2535  -7.2380  -7.1914  -3.6232   1.4051   4.8830
     4.8830   8.8202   9.7405  16.7873  16.7873  17.5508  20.3315  21.8461
    23.4254  23.4254  24.5303  24.5303  24.7390  25.4591  26.8521  32.3851
    33.0960  33.0960  33.9607  36.0163  37.5460  38.1488  38.1488  41.3889
    43.4145  43.4145  43.4666  45.5025

          k = 0.7944-0.1135 0.7944 (  1255 PWs)   bands (ev):

    -7.4505  -7.2533  -7.2484  -7.2363  -7.1916  -3.0753   0.6703   4.0954
     4.7904   9.0794  10.1648  16.5397  17.0082  18.9343  20.5315  21.1937
    22.3533  23.4734  24.9244  25.4810  26.8769  27.3172  28.5156  28.9651
    30.9690  31.3321  33.3441  34.4997  38.0714  38.7354  39.0993  40.8125
    41.8884  42.7833  43.5037  44.4413

          k = 0.6809 0.0000 0.6809 (  1250 PWs)   bands (ev):

    -7.4443  -7.2628  -7.2525  -7.2268  -7.1975  -2.9148   0.5622   3.2517
     5.0659   9.3798  12.3233  15.9441  15.9990  16.6267  18.3852  22.6078
    23.7688  24.7263  24.7532  26.3224  26.4249  29.3072  29.7528  30.3291
    30.3648  31.3541  32.9313  33.8760  35.0521  37.5262  39.0196  39.8571
    40.2241  42.7698  43.4757  43.9592

          k = 0.0000-0.9079 0.0000 (  1266 PWs)   bands (ev):

    -7.4582  -7.2441  -7.2434  -7.2434  -7.1887  -2.8824   0.3492   4.6029
     4.6029   8.7672   9.0811  18.4049  18.4049  19.2267  21.4525  21.4525
    21.4847  21.7205  23.7148  27.7716  28.2088  28.2088  28.3793  28.5056
    28.5824  28.5824  30.3868  37.5929  39.0850  39.0850  40.3253  42.1020
    42.1020  43.0801  43.2393  44.1388

          k =-0.2270 0.4540 0.0000 (  1270 PWs)   bands (ev):

    -7.4018  -7.2821  -7.2783  -7.2187  -7.1998  -4.4961   2.7331   4.8873
     6.1304  10.7032  11.3062  12.8873  14.1568  16.2955  18.8688  19.4658
    20.9134  22.6949  23.8672  25.5623  27.1192  28.7729  30.1520  31.8868
    32.2695  34.7054  35.9723  37.1644  39.5072  40.5814  41.2375  41.4639
    41.9847  42.5829  43.9191  44.2354

          k = 0.5675-0.3405 0.7944 (  1257 PWs)   bands (ev):

    -7.4229  -7.2775  -7.2695  -7.2168  -7.2002  -3.7651   1.3702   4.1902
     5.6347  10.8374  11.7865  13.1878  14.7236  17.4285  18.8153  20.2453
    21.6071  23.3450  24.3402  26.5321  27.7793  29.0556  30.1145  31.5646
    32.6098  33.7245  34.6005  35.1239  35.8431  38.1142  38.8133  39.9241
    41.5324  42.3334  42.6986  43.2969

          k = 0.4540-0.2270 0.6809 (  1264 PWs)   bands (ev):

    -7.4307  -7.2767  -7.2662  -7.2132  -7.2019  -3.3391   0.6717   4.0171
     5.4052  10.8050  11.6382  14.1739  15.5764  16.2874  19.4461  20.2483
    20.9599  24.4029  25.4743  26.6793  27.9261  29.6351  30.5746  31.1966
    32.8563  33.1914  33.5099  34.1281  35.6746  37.6603  38.0814  38.3250
    39.1048  41.5741  42.6504  43.0703

          k = 0.6809-0.2270 0.9079 (  1256 PWs)   bands (ev):

    -7.4376  -7.2640  -7.2568  -7.2293  -7.1949  -3.4828   1.2446   4.1783
     4.8006  10.1275  10.7853  14.0700  16.7133  18.0497  19.9397  21.5475
    22.3000  23.0785  23.9628  25.3646  26.9608  28.0225  29.1318  30.6293
    31.6994  33.1421  35.0552  35.6982  36.3165  36.7536  38.4956  40.4536
    41.4554  42.3464  42.9525  44.5331

          k = 0.5675-0.1135 0.7944 (  1251 PWs)   bands (ev):

    -7.4409  -7.2675  -7.2537  -7.2237  -7.1990  -2.9984   0.6762   3.4817
     4.6003  10.5396  12.4410  13.6041  15.7493  17.4285  20.3235  21.1290
    22.3271  24.5027  25.4685  26.4594  27.2717  28.7996  29.4665  30.3469
    31.3406  32.2083  33.5353  34.6091  35.8430  36.5155  37.0530  39.2294
    40.2532  40.7595  41.9503  44.0360

          k = 0.4540 0.0000 0.6809 (  1254 PWs)   bands (ev):

    -7.4348  -7.2728  -7.2581  -7.2181  -7.2027  -3.1665   0.8688   3.3204
     4.9836  10.9775  12.9219  13.1872  15.5689  16.6570  18.3651  22.2564
    22.6075  23.7100  25.3561  26.3758  29.0142  29.1940  29.7308  30.7230
    30.8113  32.5854  33.8773  34.9101  35.2221  37.0832  37.4984  37.6877
    39.9048  40.3413  43.2208  44.5884

          k =-0.2270-0.9079 0.0000 (  1262 PWs)   bands (ev):

    -7.4507  -7.2553  -7.2493  -7.2322  -7.1936  -2.8413   0.4516   4.0714
     4.1586   9.9828  10.3118  16.1146  16.3153  19.2359  20.4395  21.4931
    21.7510  24.9514  25.8339  26.0032  26.6255  26.9945  27.5819  30.7291
    31.2645  31.5218  31.9369  34.0046  35.6769  38.3292  39.0614  40.6240
    41.8868  42.4673  42.7946  44.4248

          k =-0.4540-0.9079 0.0000 (  1232 PWs)   bands (ev):

    -7.4423  -7.2681  -7.2507  -7.2222  -7.2012  -2.7990   0.5701   3.6241
     3.8086  12.2542  12.5479  13.2161  13.5697  19.3087  20.4164  21.4559
    21.9715  24.8828  26.0367  26.0733  26.7394  28.3215  29.7868  30.1104
    32.0434  33.3221  33.6171  35.4544  35.4903  35.6812  35.9608  36.3353
    37.2915  43.2648  44.3637  44.4636

 ------ SPIN DOWN ----------


          k = 0.0000 0.0000 0.0000 (  1243 PWs)   bands (ev):

    -7.3091  -7.3091  -7.3091  -7.2074  -7.2074  -5.7644   7.5863   7.5863
     7.5863   8.6459  11.2928  11.2928  11.2928  15.3344  17.9339  17.9339
    19.3376  19.3376  19.3376  22.2750  34.6751  34.6751  34.6751  35.3944
    35.3944  35.3944  36.5777  36.5777  36.5777  36.6129  36.6129  44.4581
    48.9871  48.9871  49.0075  49.0075

          k =-0.1135 0.1135-0.1135 (  1267 PWs)   bands (ev):

    -7.3305  -7.3044  -7.3044  -7.2076  -7.2076  -5.5567   5.6170   7.3158
     7.3158   9.5197  11.6839  11.6839  11.9013  16.3418  16.9609  16.9609
    18.6014  21.0719  21.0719  23.8358  31.2982  31.3661  31.3661  35.4728
    35.4728  36.1575  36.1575  36.7653  38.0617  40.9437  40.9437  44.0882
    45.4718  45.4718  46.1543  47.4292

          k =-0.2270 0.2270-0.2270 (  1260 PWs)   bands (ev):

    -7.3735  -7.2943  -7.2943  -7.2068  -7.2068  -4.9795   3.2418   6.8226
     6.8226   9.2313  12.2277  12.2277  13.8760  16.6271  16.7193  16.7193
    19.9558  23.8887  23.8887  26.7512  27.3783  27.3783  27.7610  36.0153
    36.0153  36.5739  36.5739  37.2960  38.6216  40.3801  40.3801  40.6965
    44.7658  44.7658  45.3505  45.3505

          k =-0.3405 0.3405-0.3405 (  1260 PWs)   bands (ev):

    -7.4091  -7.2864  -7.2864  -7.2036  -7.2036  -4.1942   1.3059   6.4495
     6.4495   8.8656  12.2630  12.2630  15.3369  16.9105  18.0483  18.0483
    22.0721  23.7256  23.7256  25.7397  27.3451  27.3451  30.4599  34.2505
    35.4013  35.4013  36.8248  36.8248  37.4360  37.4360  38.0170  39.5061
    42.3075  42.8928  42.8928  43.4725

          k = 0.4540-0.4540 0.4540 (  1260 PWs)   bands (ev):

    -7.4224  -7.2839  -7.2839  -7.2014  -7.2014  -3.7285   0.4474   6.3164
     6.3164   8.7334  12.1837  12.1837  15.2988  18.5167  19.9397  19.9397
    20.8772  21.1961  21.1961  27.9667  30.3374  30.8287  30.8287  31.5777
    31.5777  34.7902  35.2700  37.2058  37.2058  37.7032  37.7032  38.4311
    42.0367  42.0367  42.7057  42.7057

          k = 0.0000 0.2270 0.0000 (  1279 PWs)   bands (ev):

    -7.3410  -7.3000  -7.3000  -7.2116  -7.2047  -5.4885   5.6641   6.8306
     6.8306  10.3122  10.6645  12.3753  12.3753  15.6087  16.7441  18.2070
    19.9074  19.9074  20.7117  24.7794  30.8243  30.8243  32.1491  32.2719
    35.5051  36.0320  36.0320  38.3540  40.4647  40.4647  41.3956  43.5817
    44.5044  44.5044  45.1810  47.0600

          k =-0.1135 0.3405-0.1135 (  1276 PWs)   bands (ev):

    -7.3744  -7.2914  -7.2893  -7.2150  -7.2022  -5.0345   3.8489   6.2873
     6.2874  10.2673  11.1544  13.1730  13.2126  15.5948  17.9683  17.9936
    19.7750  21.9107  23.2018  27.2469  27.3300  27.5286  31.0932  32.1040
    33.1500  36.4966  37.4999  39.0781  40.6710  40.8814  41.8556  41.9637
    42.8362  43.5857  43.8132  44.7747

          k =-0.2270 0.4540-0.2270 (  1257 PWs)   bands (ev):

    -7.4069  -7.2845  -7.2804  -7.2135  -7.1999  -4.3018   1.8925   5.6422
     5.9710   9.9923  11.7953  13.2611  13.8707  17.1354  18.0774  18.9254
    21.6305  23.4953  24.7013  25.0758  26.6579  27.9790  30.8030  32.7351
    33.2239  34.2267  37.0701  37.1586  38.5234  38.7366  39.4421  40.0542
    42.0444  42.1732  43.5238  44.0251

          k = 0.5675-0.3405 0.5675 (  1251 PWs)   bands (ev):

    -7.4241  -7.2812  -7.2773  -7.2079  -7.2003  -3.6500   0.6421   5.1725
     5.9673   9.8110  11.8755  12.9290  15.5374  17.3576  19.4288  19.9235
    20.8956  21.5522  24.4382  27.2296  28.6268  29.8629  30.6233  32.3341
    33.2659  33.9764  34.3598  34.8416  37.4213  37.8545  38.1880  38.4131
    39.3194  42.2941  43.0537  43.1497

          k = 0.4540-0.2270 0.4540 (  1262 PWs)   bands (ev):

    -7.4194  -7.2815  -7.2799  -7.2053  -7.2040  -3.8166   0.9357   5.0104
     6.2673   9.8704  12.0847  12.6620  15.6169  17.5249  17.5381  19.6585
    21.2825  23.5605  24.2745  25.7417  27.7338  30.1920  31.7328  32.4892
    33.1099  33.4888  34.0050  35.5130  37.6548  38.1648  38.5461  38.8610
    39.9323  42.3578  43.2995  43.4440

          k = 0.3405-0.1135 0.3405 (  1267 PWs)   bands (ev):

    -7.3943  -7.2882  -7.2858  -7.2103  -7.2040  -4.5674   2.5054   5.2361
     6.7819  10.1352  12.3671  12.3768  13.9152  15.9408  17.5715  19.0812
    20.8797  23.4062  23.9132  26.5450  27.5952  27.8624  29.1552  32.3227
    33.3251  36.7022  36.8665  37.4702  38.0341  39.5556  40.2661  41.3087
    42.0109  42.7841  44.4649  44.8598

          k = 0.2270 0.0000 0.2270 (  1265 PWs)   bands (ev):

    -7.3583  -7.2990  -7.2946  -7.2105  -7.2054  -5.2262   4.3819   6.0299
     7.2769  10.2200  11.7044  11.8145  13.1645  15.8593  16.9644  17.6575
    19.8498  20.6912  23.5533  25.8542  27.2281  30.5799  31.4930  31.9273
    33.4285  36.3089  37.3342  40.1760  40.7153  41.2674  41.4912  42.6016
    42.6569  43.4704  44.6817  45.9927

          k = 0.0000 0.4540 0.0000 (  1283 PWs)   bands (ev):

    -7.3988  -7.2771  -7.2771  -7.2241  -7.1981  -4.7194   3.4173   5.6837
     5.6837   9.4117  10.9725  14.4733  14.4733  15.2853  19.0220  19.4631
    21.6368  21.6368  22.2220  26.8523  26.8523  28.5317  28.8734  29.8039
    36.1463  36.8668  36.8668  37.3651  38.4548  38.4548  39.9344  40.8003
    44.9733  45.5160  45.5417  45.5417

          k =-0.1135 0.5675-0.1135 (  1267 PWs)   bands (ev):

    -7.4226  -7.2690  -7.2663  -7.2276  -7.1954  -4.0982   2.1090   4.8805
     5.3226   9.5648  10.9455  14.2489  15.0698  17.6014  19.8193  20.1936
    22.0012  23.5485  23.9121  24.4489  25.3855  28.5168  28.6044  32.3995
    33.3252  33.9201  35.9130  36.2668  37.5589  38.0239  39.2123  40.7387
    42.4597  43.3176  44.3948  45.2947

          k = 0.6809-0.2270 0.6809 (  1247 PWs)   bands (ev):

    -7.4343  -7.2697  -7.2621  -7.2226  -7.1969  -3.4134   0.9494   3.9822
     5.3069   9.6798  12.4770  13.9666  14.7488  18.4280  20.0693  20.7018
    21.2677  22.2372  25.9791  26.8687  27.9257  29.0103  29.2292  29.4228
    31.5690  33.8928  34.1897  35.3690  36.6887  37.7039  38.5750  38.7451
    40.0292  40.9410  43.0296  44.4049

          k = 0.5675-0.1135 0.5675 (  1259 PWs)   bands (ev):

    -7.4315  -7.2739  -7.2652  -7.2139  -7.2036  -3.2956   0.7926   3.5194
     5.6375   9.9478  13.2720  14.2025  15.2244  16.4432  17.5356  20.5503
    23.1170  24.9748  24.9968  25.8983  29.0052  29.2417  30.5182  30.9471
    31.1858  33.5112  33.6986  34.2766  35.0870  36.4752  38.3317  38.7696
    39.8649  41.5632  43.1168  44.1957

          k = 0.4540 0.0000 0.4540 (  1264 PWs)   bands (ev):

    -7.4165  -7.2789  -7.2754  -7.2097  -7.2069  -3.8974   1.6623   3.8176
     6.2204  10.4136  13.3821  13.3882  13.6082  16.0224  18.3503  20.8193
    21.3187  22.4850  25.8260  27.0570  27.9939  28.7532  30.0957  31.1397
    32.3343  34.0557  34.6813  35.8495  35.8994  37.6866  38.5544  40.1220
    40.6754  44.5411  44.7166  44.7698

          k = 0.0000 0.6809 0.0000 (  1266 PWs)   bands (ev):

    -7.4425  -7.2535  -7.2535  -7.2380  -7.1914  -3.6232   1.4051   4.8830
     4.8830   8.8202   9.7405  16.7873  16.7873  17.5508  20.3315  21.8461
    23.4254  23.4254  24.5303  24.5303  24.7390  25.4591  26.8521  32.3851
    33.0960  33.0960  33.9607  36.0163  37.5460  38.1488  38.1488  41.3889
    43.4145  43.4145  43.4666  45.5025

          k = 0.7944-0.1135 0.7944 (  1255 PWs)   bands (ev):

    -7.4505  -7.2533  -7.2484  -7.2363  -7.1916  -3.0753   0.6703   4.0954
     4.7904   9.0794  10.1648  16.5397  17.0082  18.9343  20.5315  21.1937
    22.3533  23.4734  24.9244  25.4810  26.8769  27.3172  28.5156  28.9651
    30.9690  31.3321  33.3441  34.4997  38.0714  38.7354  39.0993  40.8125
    41.8884  42.7833  43.5037  44.4413

          k = 0.6809 0.0000 0.6809 (  1250 PWs)   bands (ev):

    -7.4443  -7.2628  -7.2525  -7.2268  -7.1975  -2.9148   0.5622   3.2517
     5.0659   9.3798  12.3233  15.9441  15.9990  16.6267  18.3852  22.6078
    23.7688  24.7263  24.7532  26.3224  26.4249  29.3072  29.7528  30.3291
    30.3648  31.3541  32.9313  33.8760  35.0521  37.5262  39.0196  39.8571
    40.2241  42.7698  43.4757  43.9592

          k = 0.0000-0.9079 0.0000 (  1266 PWs)   bands (ev):

    -7.4582  -7.2441  -7.2434  -7.2434  -7.1887  -2.8824   0.3492   4.6029
     4.6029   8.7672   9.0811  18.4049  18.4049  19.2267  21.4525  21.4525
    21.4847  21.7205  23.7148  27.7716  28.2088  28.2088  28.3793  28.5056
    28.5824  28.5824  30.3868  37.5929  39.0850  39.0850  40.3253  42.1020
    42.1020  43.0801  43.2393  44.1388

          k =-0.2270 0.4540 0.0000 (  1270 PWs)   bands (ev):

    -7.4018  -7.2821  -7.2783  -7.2187  -7.1998  -4.4961   2.7331   4.8873
     6.1304  10.7032  11.3062  12.8873  14.1568  16.2955  18.8688  19.4658
    20.9134  22.6949  23.8672  25.5623  27.1192  28.7729  30.1520  31.8868
    32.2695  34.7054  35.9723  37.1644  39.5072  40.5814  41.2375  41.4639
    41.9847  42.5829  43.9191  44.2354

          k = 0.5675-0.3405 0.7944 (  1257 PWs)   bands (ev):

    -7.4229  -7.2775  -7.2695  -7.2168  -7.2002  -3.7651   1.3702   4.1902
     5.6347  10.8374  11.7865  13.1878  14.7236  17.4285  18.8153  20.2453
    21.6071  23.3450  24.3402  26.5321  27.7793  29.0556  30.1145  31.5646
    32.6098  33.7245  34.6005  35.1239  35.8431  38.1142  38.8133  39.9241
    41.5324  42.3334  42.6986  43.2969

          k = 0.4540-0.2270 0.6809 (  1264 PWs)   bands (ev):

    -7.4307  -7.2767  -7.2662  -7.2132  -7.2019  -3.3391   0.6717   4.0171
     5.4052  10.8050  11.6382  14.1739  15.5764  16.2874  19.4461  20.2483
    20.9599  24.4029  25.4743  26.6793  27.9261  29.6351  30.5746  31.1966
    32.8563  33.1914  33.5099  34.1281  35.6746  37.6603  38.0814  38.3250
    39.1048  41.5741  42.6504  43.0703

          k = 0.6809-0.2270 0.9079 (  1256 PWs)   bands (ev):

    -7.4376  -7.2640  -7.2568  -7.2293  -7.1949  -3.4828   1.2446   4.1783
     4.8006  10.1275  10.7853  14.0700  16.7133  18.0497  19.9397  21.5475
    22.3000  23.0785  23.9628  25.3646  26.9608  28.0225  29.1318  30.6293
    31.6994  33.1421  35.0552  35.6982  36.3165  36.7536  38.4956  40.4536
    41.4554  42.3464  42.9525  44.5331

          k = 0.5675-0.1135 0.7944 (  1251 PWs)   bands (ev):

    -7.4409  -7.2675  -7.2537  -7.2237  -7.1990  -2.9984   0.6762   3.4817
     4.6003  10.5396  12.4410  13.6041  15.7493  17.4285  20.3235  21.1290
    22.3271  24.5027  25.4685  26.4594  27.2717  28.7996  29.4665  30.3469
    31.3406  32.2083  33.5353  34.6091  35.8430  36.5155  37.0530  39.2294
    40.2532  40.7595  41.9503  44.0360

          k = 0.4540 0.0000 0.6809 (  1254 PWs)   bands (ev):

    -7.4348  -7.2728  -7.2581  -7.2181  -7.2027  -3.1665   0.8688   3.3204
     4.9836  10.9775  12.9219  13.1872  15.5689  16.6570  18.3651  22.2564
    22.6075  23.7100  25.3561  26.3758  29.0142  29.1940  29.7308  30.7230
    30.8113  32.5854  33.8773  34.9101  35.2221  37.0832  37.4984  37.6877
    39.9048  40.3413  43.2208  44.5884

          k =-0.2270-0.9079 0.0000 (  1262 PWs)   bands (ev):

    -7.4507  -7.2553  -7.2493  -7.2322  -7.1936  -2.8413   0.4516   4.0714
     4.1586   9.9828  10.3118  16.1146  16.3153  19.2359  20.4395  21.4931
    21.7510  24.9514  25.8339  26.0032  26.6255  26.9945  27.5819  30.7291
    31.2645  31.5218  31.9369  34.0046  35.6769  38.3292  39.0614  40.6240
    41.8868  42.4673  42.7946  44.4248

          k =-0.4540-0.9079 0.0000 (  1232 PWs)   bands (ev):

    -7.4423  -7.2681  -7.2507  -7.2222  -7.2012  -2.7990   0.5701   3.6241
     3.8086  12.2542  12.5479  13.2161  13.5697  19.3087  20.4164  21.4559
    21.9715  24.8828  26.0367  26.0733  26.7394  28.3215  29.7868  30.1104
    32.0434  33.3221  33.6171  35.4544  35.4903  35.6812  35.9608  36.3353
    37.2915  43.2648  44.3637  44.4636

     highest occupied, lowest unoccupied level (ev):     7.5863    8.6459

!    total energy              =    -188.98823676 Ry
     estimated scf accuracy    <          5.0E-12 Ry

     The total energy is the sum of the following terms:
     one-electron contribution =    -114.64058230 Ry
     hartree contribution      =      73.49207589 Ry
     xc contribution           =     -52.35184524 Ry
     ewald contribution        =     -95.48788511 Ry

     total magnetization       =     0.00 Bohr mag/cell
     absolute magnetization    =     0.00 Bohr mag/cell

     convergence has been achieved in   8 iterations


     Computing stress (Cartesian axis) and pressure

          total   stress  (Ry/bohr**3)                   (kbar)     P=       69.84
   0.00047478  -0.00000000  -0.00000000           69.84       -0.00       -0.00
  -0.00000000   0.00047478   0.00000000           -0.00       69.84        0.00
  -0.00000000   0.00000000   0.00047478           -0.00        0.00       69.84

     Energy error            =      1.3E-01 Ry
     Gradient error          =      0.0E+00 Ry/Bohr
     Cell gradient error     =      7.0E+01 kbar

     number of scf cycles    =   2
     number of bfgs steps    =   1

     enthalpy           old  =    -188.8562001429 Ry
     enthalpy           new  =    -188.9882367585 Ry

     CASE: enthalpy          _new < enthalpy          _old

     new trust radius        =       0.0511513186 bohr
ibrav =      2
 celldm(1) =     10.56527433
Input lattice vectors:
    -0.55909205     0.00000000     0.55909205
    -0.00000000     0.55909205     0.55909205
    -0.55909205     0.55909205     0.00000000
New lattice vectors in INITIAL alat:
    -0.55909205     0.00000000     0.55909205
     0.00000000     0.55909205     0.55909205
    -0.55909205     0.55909205     0.00000000
New lattice vectors in NEW alat (for information only):
    -0.50000000     0.00000000     0.50000000
     0.00000000     0.50000000     0.50000000
    -0.50000000     0.50000000     0.00000000
Discrepancy in bohr =     0.000000    0.000000    0.000000

Atomic positions rescaled with new alat:
Ga               0.0000000000        0.0000000000        0.0000000000    0   0   0
As               0.2500000000        0.2500000000        0.2500000000    0   0   0
     new conv_thr            =            1.0E-11 Ry

     new unit-cell volume =    294.83724 a.u.^3 (    43.69037 Ang^3 )
     density =      5.49750 g/cm^3

CELL_PARAMETERS (alat=  9.44860000)
  -0.559092052   0.000000000   0.559092052
   0.000000000   0.559092052   0.559092052
  -0.559092052   0.559092052   0.000000000

ATOMIC_POSITIONS (alat)
Ga               0.0000000000        0.0000000000        0.0000000000    0   0   0
As               0.2795460262        0.2795460262        0.2795460262    0   0   0



     Writing config-only to output data dir ./outdir/GaAs.save/ :
     XML data file
     NEW-OLD atomic charge density approx. for the potential
     New effective cutoffs (rho, wfc):  319.72   39.99
     Generating pointlists ...

     total cpu time spent up to now is      150.8 secs

     Self-consistent Calculation

     iteration #  1     ecut=    50.00 Ry     beta= 0.30
     Davidson diagonalization with overlap
     ethr =  1.00E-06,  avg # of iterations =  4.8

     total cpu time spent up to now is      162.9 secs

     total energy              =    -188.99252139 Ry
     estimated scf accuracy    <       0.00002503 Ry

     total magnetization       =    -0.00 Bohr mag/cell
     absolute magnetization    =     0.00 Bohr mag/cell

     iteration #  2     ecut=    50.00 Ry     beta= 0.30
     Davidson diagonalization with overlap
     ethr =  1.39E-07,  avg # of iterations =  1.0

     total cpu time spent up to now is      169.1 secs

     total energy              =    -188.99252358 Ry
     estimated scf accuracy    <       0.00001009 Ry

     total magnetization       =    -0.00 Bohr mag/cell
     absolute magnetization    =     0.00 Bohr mag/cell

     iteration #  3     ecut=    50.00 Ry     beta= 0.30
     Davidson diagonalization with overlap
     ethr =  5.61E-08,  avg # of iterations =  1.0

     total cpu time spent up to now is      175.2 secs

     total energy              =    -188.99252460 Ry
     estimated scf accuracy    <       0.00000054 Ry

     total magnetization       =     0.00 Bohr mag/cell
     absolute magnetization    =     0.00 Bohr mag/cell

     iteration #  4     ecut=    50.00 Ry     beta= 0.30
     Davidson diagonalization with overlap
     ethr =  3.02E-09,  avg # of iterations =  1.9

     total cpu time spent up to now is      182.2 secs

     total energy              =    -188.99252469 Ry
     estimated scf accuracy    <       0.00000006 Ry

     total magnetization       =    -0.00 Bohr mag/cell
     absolute magnetization    =     0.00 Bohr mag/cell

     iteration #  5     ecut=    50.00 Ry     beta= 0.30
     Davidson diagonalization with overlap
     ethr =  3.15E-10,  avg # of iterations =  1.4

     total cpu time spent up to now is      188.8 secs

     total energy              =    -188.99252471 Ry
     estimated scf accuracy    <          4.9E-09 Ry

     total magnetization       =    -0.00 Bohr mag/cell
     absolute magnetization    =     0.00 Bohr mag/cell

     iteration #  6     ecut=    50.00 Ry     beta= 0.30
     Davidson diagonalization with overlap
     ethr =  2.71E-11,  avg # of iterations =  2.2

     total cpu time spent up to now is      195.8 secs

     total energy              =    -188.99252471 Ry
     estimated scf accuracy    <          2.6E-10 Ry

     total magnetization       =     0.00 Bohr mag/cell
     absolute magnetization    =     0.00 Bohr mag/cell

     iteration #  7     ecut=    50.00 Ry     beta= 0.30
     Davidson diagonalization with overlap
     ethr =  1.46E-12,  avg # of iterations =  2.6

     total cpu time spent up to now is      202.9 secs

     total energy              =    -188.99252471 Ry
     estimated scf accuracy    <          2.1E-11 Ry

     total magnetization       =    -0.00 Bohr mag/cell
     absolute magnetization    =     0.00 Bohr mag/cell

     iteration #  8     ecut=    50.00 Ry     beta= 0.30
     Davidson diagonalization with overlap
     ethr =  1.19E-13,  avg # of iterations =  2.5

     Magnetic moment per site  (integrated on atomic sphere of radius R)
     atom   1 (R=0.179)  charge= 10.4952  magn=  0.0000
     atom   2 (R=0.179)  charge=  2.0185  magn= -0.0000

     total cpu time spent up to now is      210.1 secs

     End of self-consistent calculation

 ------ SPIN UP ------------


          k = 0.0000 0.0000 0.0000 (  1243 PWs)   bands (ev):

    -7.7961  -7.7961  -7.7961  -7.7074  -7.7074  -5.9972   7.0018   7.0018
     7.0018   7.7090  10.7024  10.7024  10.7024  14.5896  17.2337  17.2337
    18.6359  18.6359  18.6359  21.4695  33.1966  33.1966  33.1966  34.0899
    34.0899  34.0899  35.3459  35.3459  35.3807  35.3807  35.3807  42.7268
    47.3164  47.3164  47.4249  47.4249

          k =-0.1118 0.1118-0.1118 (  1267 PWs)   bands (ev):

    -7.8128  -7.7921  -7.7921  -7.7075  -7.7075  -5.8039   5.0254   6.7501
     6.7501   8.7086  11.0709  11.0709  11.2120  15.5721  16.3090  16.3090
    17.9094  20.2986  20.2986  22.9862  29.9871  30.1811  30.1811  34.0583
    34.0583  34.8805  34.8805  35.5622  36.6129  39.5509  39.5509  42.4684
    43.9524  43.9524  44.3891  45.8097

          k =-0.2236 0.2236-0.2236 (  1260 PWs)   bands (ev):

    -7.8481  -7.7833  -7.7833  -7.7068  -7.7068  -5.2646   2.7619   6.2858
     6.2858   8.4964  11.5997  11.5997  13.0570  15.9464  16.0651  16.0651
    19.0844  23.0213  23.0213  25.7884  26.3378  26.3378  26.5885  34.5690
    34.5690  35.2717  35.2717  36.0754  37.1976  39.0315  39.0315  39.1140
    43.1951  43.1951  43.8365  43.8365

          k =-0.3354 0.3354-0.3354 (  1260 PWs)   bands (ev):

    -7.8785  -7.7764  -7.7764  -7.7041  -7.7041  -4.5369   0.9323   5.9316
     5.9316   8.1470  11.6593  11.6593  14.6454  16.0657  17.3181  17.3181
    21.0056  22.8008  22.8008  24.6782  26.3762  26.3762  29.4137  32.9278
    34.1550  34.1550  35.3724  35.3724  36.1071  36.1071  36.7715  38.1500
    40.7399  41.3704  41.3704  42.0317

          k = 0.4472-0.4472 0.4472 (  1260 PWs)   bands (ev):

    -7.8902  -7.7742  -7.7742  -7.7023  -7.7023  -4.1147   0.1338   5.8050
     5.8050   8.0176  11.5930  11.5930  14.6785  17.5714  19.1125  19.1125
    19.8016  20.3777  20.3777  26.8654  29.1210  29.7529  29.7529  30.4751
    30.4751  33.6145  34.0815  35.7303  35.7303  36.3233  36.3233  37.1701
    40.5580  40.5580  41.2923  41.2923

          k = 0.0000 0.2236 0.0000 (  1279 PWs)   bands (ev):

    -7.8217  -7.7882  -7.7882  -7.7109  -7.7050  -5.7399   5.0272   6.2991
     6.2991   9.5107  10.0316  11.7197  11.7197  14.9951  15.9557  17.5001
    19.1889  19.1889  19.9464  23.8937  29.6074  29.6074  30.7799  31.1672
    34.2344  34.6715  34.6715  36.9592  39.0462  39.0462  40.0181  42.0487
    42.9643  42.9643  43.5607  45.4076

          k =-0.1118 0.3354-0.1118 (  1276 PWs)   bands (ev):

    -7.8494  -7.7809  -7.7790  -7.7136  -7.7029  -5.3150   3.3130   5.7691
     5.7862   9.5812  10.4475  12.4861  12.5483  14.8869  17.1836  17.2993
    18.9985  21.1174  22.3674  26.1995  26.2595  26.4945  29.8124  30.9485
    31.8907  35.1180  36.1466  37.6984  39.1902  39.4850  40.4046  40.4457
    41.3457  42.0560  42.3725  43.2285

          k =-0.2236 0.4472-0.2236 (  1257 PWs)   bands (ev):

    -7.8771  -7.7748  -7.7713  -7.7124  -7.7010  -4.6330   1.4708   5.1469
     5.4845   9.2893  11.1539  12.5999  13.1977  16.3685  17.2875  18.1697
    20.6501  22.5790  23.6998  24.1817  25.7076  26.8553  29.7304  31.5430
    31.9036  32.9872  35.7285  35.7476  37.1425  37.4131  38.1179  38.6169
    40.6007  40.7300  42.0113  42.5123

          k = 0.5589-0.3354 0.5589 (  1251 PWs)   bands (ev):

    -7.8921  -7.7719  -7.7687  -7.7078  -7.7014  -4.0386   0.3071   4.6986
     5.4785   9.1024  11.2798  12.3003  14.7911  16.6390  18.5330  19.1026
    19.8918  20.7159  23.4362  26.1634  27.6207  28.7387  29.5407  31.1530
    32.0407  32.6303  33.1766  33.6397  36.1638  36.4515  36.8688  37.0570
    37.8692  40.8456  41.5814  41.6790

          k = 0.4472-0.2236 0.4472 (  1262 PWs)   bands (ev):

    -7.8880  -7.7722  -7.7709  -7.7056  -7.7044  -4.1891   0.5784   4.5504
     5.7602   9.1471  11.4912  12.0422  14.8323  16.7636  16.8245  18.8005
    20.3286  22.5619  23.3292  24.7407  26.7129  29.1284  30.5465  31.3122
    31.8901  32.3174  32.7054  34.2790  36.2447  36.7921  37.2404  37.4609
    38.5601  40.9027  41.8210  41.9574

          k = 0.3354-0.1118 0.3354 (  1267 PWs)   bands (ev):

    -7.8661  -7.7781  -7.7759  -7.7097  -7.7043  -4.8797   2.0467   4.7792
     6.2445   9.3854  11.7296  11.7488  13.1722  15.3122  16.8129  18.2595
    20.0053  22.5322  22.9764  25.5804  26.4484  26.8139  28.1309  31.1238
    32.0154  35.3523  35.5010  36.1948  36.6212  38.1480  38.9233  39.8489
    40.5753  41.2036  42.9883  43.3229

          k = 0.2236 0.0000 0.2236 (  1265 PWs)   bands (ev):

    -7.8356  -7.7875  -7.7836  -7.7099  -7.7056  -5.4948   3.8231   5.5473
     6.7095   9.4164  11.0568  11.2015  12.4513  15.2482  16.2711  16.8485
    19.1086  19.9362  22.6955  24.9403  26.1453  29.3137  30.2737  30.7798
    32.1452  34.9631  35.9641  38.6777  39.3374  39.8635  39.9813  41.1037
    41.1707  42.0292  43.1098  44.4482

          k = 0.0000 0.4472 0.0000 (  1283 PWs)   bands (ev):

    -7.8708  -7.7687  -7.7687  -7.7211  -7.6993  -5.0184   2.8654   5.2159
     5.2159   8.8706  10.2869  13.7196  13.7196  14.4949  18.2951  18.5778
    20.8648  20.8648  21.4274  25.7736  25.7736  27.5343  27.5970  28.7495
    34.8686  35.4760  35.4760  36.0466  37.1363  37.1363  38.4798  39.3053
    43.4296  43.9448  43.9448  44.0128

          k =-0.1118 0.5589-0.1118 (  1267 PWs)   bands (ev):

    -7.8917  -7.7616  -7.7594  -7.7241  -7.6971  -4.4394   1.6333   4.4508
     4.8724   9.0119  10.3046  13.4953  14.3123  16.6852  19.0461  19.3325
    21.1271  22.6508  23.0357  23.4561  24.4870  27.3619  27.4742  31.2180
    32.1514  32.6883  34.6754  34.9820  36.1416  36.6346  37.8297  39.2798
    41.0467  41.7302  42.8305  43.7477

          k = 0.6707-0.2236 0.6707 (  1247 PWs)   bands (ev):

    -7.9020  -7.7620  -7.7558  -7.7200  -7.6983  -3.8139   0.5613   3.5917
     4.8560   9.1110  11.7587  13.2518  14.0324  17.5450  19.2513  19.8112
    20.3152  21.3703  24.9717  25.9240  26.7595  27.9390  28.1495  28.3678
    30.3443  32.6672  33.0198  34.0782  35.4125  36.3522  37.1884  37.4005
    38.6002  39.5511  41.5293  42.8848

          k = 0.5589-0.1118 0.5589 (  1259 PWs)   bands (ev):

    -7.8994  -7.7656  -7.7585  -7.7127  -7.7040  -3.7103   0.4212   3.1545
     5.1678   9.3483  12.5165  13.5063  14.4455  15.6542  16.8291  19.7467
    22.0408  23.9966  24.0309  24.8624  27.9132  28.1253  29.3364  29.8892
    29.9620  32.3561  32.4899  33.1176  33.8494  35.2351  36.8700  37.3856
    38.4440  40.1435  41.6260  42.7277

          k = 0.4472 0.0000 0.4472 (  1264 PWs)   bands (ev):

    -7.8858  -7.7699  -7.7673  -7.7092  -7.7067  -4.2581   1.2257   3.4468
     5.7173   9.7440  12.6541  12.7112  12.8758  15.3917  17.5096  19.9090
    20.4976  21.5863  24.8425  25.9272  26.8936  27.6785  29.0612  29.8871
    31.2104  32.8195  33.5117  34.5074  34.6835  36.2623  37.1557  38.7277
    39.2514  42.9786  43.2415  43.2875

          k = 0.0000 0.6707 0.0000 (  1266 PWs)   bands (ev):

    -7.9096  -7.7485  -7.7485  -7.7326  -7.6937  -3.9981   0.9629   4.4553
     4.4553   8.3088   9.1845  15.9313  15.9313  16.5783  19.5737  20.8388
    22.4757  22.4757  23.6612  23.6612  23.8672  24.5465  25.6757  31.2436
    31.9496  31.9496  32.6697  34.7417  36.2602  36.7041  36.7041  39.8272
    41.8762  41.8762  41.9805  44.0158

          k = 0.7825-0.1118 0.7825 (  1255 PWs)   bands (ev):

    -7.9168  -7.7479  -7.7442  -7.7316  -7.6938  -3.5020   0.2846   3.7147
     4.3667   8.5592   9.5844  15.6621  16.1659  17.9626  19.7149  20.1925
    21.4933  22.5231  23.9597  24.5372  25.9349  26.2464  27.4996  27.9036
    29.8960  30.1725  32.1371  33.1986  36.6999  37.2543  37.7272  39.3740
    40.5030  41.2637  41.9401  42.9360

          k = 0.6707 0.0000 0.6707 (  1250 PWs)   bands (ev):

    -7.9113  -7.7560  -7.7477  -7.7235  -7.6988  -3.3636   0.1907   2.9205
     4.6274   8.8379  11.6471  15.1013  15.2084  15.7824  17.6625  21.5581
    22.8444  23.7409  23.7996  25.3199  25.3461  28.2297  28.7367  29.1835
    29.3151  30.1231  31.7292  32.7149  33.7865  36.2256  37.5577  38.3792
    38.8843  41.2586  42.0064  42.4769

          k = 0.0000-0.8943 0.0000 (  1266 PWs)   bands (ev):

    -7.9238  -7.7399  -7.7399  -7.7376  -7.6913  -3.3292  -0.0073   4.1888
     4.1888   8.2786   8.5369  17.4420  17.4420  18.2007  20.6161  20.6161
    20.6265  20.7047  22.8420  26.7560  27.2169  27.2169  27.3823  27.4074
    27.5869  27.5869  29.1726  36.2605  37.5836  37.5836  38.8310  40.6289
[...]

          k = 0.0000 0.6630 0.0000 (  1808 PWs)   bands (ev):

    -8.2906  -8.1492  -8.1492  -8.1334  -8.0996  -4.2793   0.6371   4.1391
     4.1391   7.9272   8.7664  15.2916  15.2916  15.8644  19.0030  20.0892
    21.7613  21.7613  23.0087  23.0087  23.2126  23.8524  24.7988  30.3875
    31.0819  31.0819  31.7020  33.7681  35.2940  35.6199  35.6199  38.6292
    40.7219  40.7219  40.8455  42.8966

          k = 0.7735-0.1105 0.7735 (  1806 PWs)   bands (ev):

    -8.2971  -8.1484  -8.1453  -8.1329  -8.0996  -3.8211   0.0004   3.4331
     4.0536   8.1700   9.1499  15.0110  15.5337  17.2381  19.1030  19.4474
    20.8466  21.8111  23.2375  23.8192  25.2254  25.4440  26.7331  27.1100
    29.0848  29.2991  31.2287  32.2133  35.6569  36.1413  36.6887  38.2958
    39.4590  40.1259  40.7353  41.8085

          k = 0.6630 0.0000 0.6630 (  1822 PWs)   bands (ev):

    -8.2918  -8.1558  -8.1486  -8.1259  -8.1044  -3.6980  -0.0837   2.6754
     4.3033   8.4315  11.1394  14.4764  14.6158  15.1557  17.1186  20.7691
    22.1535  23.0044  23.0932  24.4946  24.5980  27.4140  27.9749  28.3228
    28.5175  29.1879  30.8270  31.8398  32.8338  35.2397  36.4641  37.2521
    37.8787  40.1271  40.9027  41.3556

          k = 0.0000-0.8840 0.0000 (  1772 PWs)   bands (ev):

    -8.3032  -8.1413  -8.1413  -8.1375  -8.0970  -3.6627  -0.2707   3.8829
     3.8829   7.9150   8.1289  16.7242  16.7242  17.4441  19.8145  19.9854
    19.9854  20.1233  22.1734  25.9932  26.4729  26.4729  26.5926  26.6313
    26.8307  26.8307  28.2613  35.2499  36.4541  36.4541  37.6739  39.5250
    39.5250  40.5553  40.6791  41.4288

          k =-0.2210 0.4420 0.0000 (  1833 PWs)   bands (ev):

    -8.2574  -8.1710  -8.1681  -8.1202  -8.1063  -5.0472   1.8642   4.1489
     5.2610   9.5681  10.0235  11.8485  12.8682  14.9837  17.4806  17.9490
    19.5727  21.2005  22.2003  23.9542  25.2208  26.7532  28.2769  29.7240
    30.1798  32.4257  33.7158  34.8471  37.0680  38.1547  38.6207  38.8546
    39.3773  39.9752  41.3126  41.5360

          k = 0.5525-0.3315 0.7735 (  1820 PWs)   bands (ev):

    -8.2737  -8.1673  -8.1612  -8.1186  -8.1064  -4.4138   0.6541   3.4888
     4.8221   9.6003  10.6940  12.0287  13.4424  16.0424  17.3842  18.8060
    19.9371  21.7705  22.6565  24.7944  25.7963  27.2235  28.1600  29.5593
    30.3812  31.6663  32.4722  32.7660  33.6031  35.8184  36.4245  37.5171
    39.0180  39.7186  40.1214  40.6557

          k = 0.4420-0.2210 0.6630 (  1808 PWs)   bands (ev):

    -8.2797  -8.1666  -8.1585  -8.1159  -8.1075  -4.0594   0.0568   3.3134
     4.6193   9.5434  10.6492  12.8759  14.2064  15.0256  18.1424  18.7141
    19.2810  22.5992  23.7025  24.9386  26.1018  27.6568  28.5881  29.1525
    30.6416  31.1751  31.4606  32.0373  33.2780  35.3715  35.7715  36.0488
    36.7700  39.1162  39.9997  40.3418

          k = 0.6630-0.2210 0.8840 (  1821 PWs)   bands (ev):

    -8.2865  -8.1572  -8.1513  -8.1277  -8.1023  -4.1645   0.5010   3.5028
     4.0753   9.1314   9.6907  12.7913  15.2077  16.5303  18.3833  19.9168
    20.7903  21.5912  22.3090  23.6061  25.1768  26.2946  27.0941  28.7447
    29.6450  30.9945  32.7095  33.4420  34.0731  34.5267  36.1364  37.9101
    38.9907  39.8639  40.2266  41.6687

          k = 0.5525-0.1105 0.7735 (  1819 PWs)   bands (ev):

    -8.2890  -8.1599  -8.1487  -8.1239  -8.1053  -3.7660   0.0150   2.8742
     3.8953   9.4876  11.2155  12.4004  14.3692  15.9710  18.7676  19.4720
    20.8001  22.7745  23.7403  24.6968  25.4986  26.8263  27.5792  28.3767
    29.2412  30.2385  31.3754  32.3807  33.4968  34.3069  34.8576  36.7977
    37.8596  38.3521  39.4687  41.2305

          k = 0.4420 0.0000 0.6630 (  1823 PWs)   bands (ev):

    -8.2837  -8.1640  -8.1524  -8.1196  -8.1082  -3.9067   0.1839   2.7290
     4.2395   9.8421  11.7389  11.9387  14.2480  15.2367  16.9930  20.6060
    21.0436  22.0327  23.5870  24.5194  27.1326  27.2633  27.7967  28.6859
    28.7461  30.6111  31.7920  32.6740  32.8941  34.8667  35.2229  35.4223
    37.5681  37.8318  40.4749  41.9675

          k =-0.2210-0.8840 0.0000 (  1810 PWs)   bands (ev):

    -8.2974  -8.1506  -8.1446  -8.1303  -8.1013  -3.6331  -0.1830   3.4062
     3.4984   9.0300   9.2508  14.6779  14.8688  17.5311  18.8603  19.9198
    20.1512  23.1858  24.1040  24.3573  24.9645  25.1744  25.8069  28.7889
    29.3378  29.4452  29.9857  31.7664  33.2265  35.9306  36.6112  38.2672
    39.4218  39.9364  40.0801  41.7643

          k =-0.4420-0.8840 0.0000 (  1800 PWs)   bands (ev):

    -8.2901  -8.1606  -8.1457  -8.1228  -8.1066  -3.6029  -0.0836   3.0061
     3.1925  11.1565  11.1963  11.9377  12.5224  17.5985  18.8144  19.8720
    20.3375  23.3484  24.3785  24.3992  24.9860  26.2418  27.7356  28.1516
    29.8335  31.1444  31.4353  33.2497  33.3583  33.5718  33.8316  34.1753
    34.9014  40.7739  41.6696  41.8523

 ------ SPIN DOWN ----------


          k = 0.0000 0.0000 0.0000 (  1837 PWs)   bands (ev):

    -8.1919  -8.1919  -8.1919  -8.1120  -8.1120  -6.1712   6.5685   6.5685
     6.5685   7.0149  10.2635  10.2635  10.2635  14.0392  16.7047  16.7047
    18.1094  18.1094  18.1094  20.8725  32.0851  32.0851  32.0851  33.0934
    33.0934  33.0934  34.3728  34.3728  34.4860  34.4860  34.4860  41.4251
    46.0283  46.0283  46.0283  46.2302

          k =-0.1105 0.1105-0.1105 (  1841 PWs)   bands (ev):

    -8.2055  -8.1882  -8.1882  -8.1123  -8.1123  -5.9882   4.5793   6.3309
     6.3309   8.1086  10.6153  10.6153  10.7074  15.0015  15.8175  15.8175
    17.3937  19.7175  19.7175  22.3542  29.0014  29.2810  29.2810  33.0012
    33.0012  33.9025  33.9025  34.6629  35.5172  38.4997  38.4997  41.2377
    42.8062  42.8062  43.0549  44.5630

          k =-0.2210 0.2210-0.2210 (  1847 PWs)   bands (ev):

    -8.2353  -8.1804  -8.1804  -8.1117  -8.1117  -5.4774   2.4029   5.8884
     5.8884   7.9517  11.1317  11.1317  12.4510  15.4393  15.5728  15.5728
    18.4400  22.3681  22.3681  25.0549  25.5513  25.5513  25.7251  33.4841
    33.4841  34.2741  34.2741  35.1631  36.1260  37.8990  38.0175  38.0175
    41.9959  41.9959  42.6801  42.6846

          k =-0.3315 0.3315-0.3315 (  1838 PWs)   bands (ev):

    -8.2614  -8.1743  -8.1743  -8.1093  -8.1093  -4.7929   0.6540   5.5487
     5.5487   7.6159  11.2077  11.2077  14.1105  15.4570  16.7696  16.7696
    20.2176  22.1023  22.1023  23.8833  25.6460  25.6460  28.6310  31.9290
    33.2059  33.2059  34.2765  34.2765  35.1094  35.1094  35.8408  37.1161
    39.5652  40.2134  40.2134  40.9330

          k = 0.4420-0.4420 0.4420 (  1802 PWs)   bands (ev):

    -8.2715  -8.1720  -8.1720  -8.1072  -8.1072  -4.4021  -0.1004   5.4269
     5.4269   7.4891  11.1510  11.1510  14.2101  16.8691  18.4941  18.4941
    19.0109  19.7567  19.7567  26.0460  28.1984  28.9444  28.9444  29.6407
    29.6407  32.7213  33.1952  34.6042  34.6042  35.2930  35.2930  36.2281
    39.4362  39.4362  39.9082  40.2148

          k = 0.0000 0.2210 0.0000 (  1840 PWs)   bands (ev):

    -8.2132  -8.1848  -8.1848  -8.1152  -8.1100  -5.9274   4.5501   5.9053
     5.9053   8.8913   9.5923  11.2326  11.2326  14.5343  15.3728  16.9667
    18.6503  18.6503  19.3733  23.2328  28.6878  28.6878  29.7532  30.3304
    33.2594  33.6535  33.6535  35.8998  37.9807  37.9807  38.9761  40.8948
    41.7875  41.7875  42.3345  44.1369

          k =-0.1105 0.3315-0.1105 (  1824 PWs)   bands (ev):

    -8.2366  -8.1781  -8.1764  -8.1174  -8.1080  -5.5243   2.9122   5.3869
     5.4151   9.0517   9.9418  11.9748  12.0483  14.3675  16.5967  16.7763
    18.4236  20.5214  21.7407  25.4085  25.4249  25.7487  28.8501  30.0742
    30.9423  34.0859  35.1175  36.6573  38.0709  38.4367  39.2896  39.2992
    40.2191  40.8986  41.2873  42.0532

          k =-0.2210 0.4420-0.2210 (  1840 PWs)   bands (ev):

    -8.2608  -8.1727  -8.1697  -8.1165  -8.1065  -4.8807   1.1565   4.7818
     5.1245   8.7620  10.6798  12.1056  12.6928  15.7885  16.7094  17.6020
    19.9251  21.8865  22.9459  23.5091  24.9900  26.0127  28.9267  30.6377
    30.9069  32.0519  34.6876  34.7128  36.0928  36.4149  37.1212  37.5339
    39.4981  39.6348  40.8627  41.3717

          k = 0.5525-0.3315 0.5525 (  1823 PWs)   bands (ev):

    -8.2736  -8.1701  -8.1672  -8.1122  -8.1067  -4.3283   0.0572   4.3494
     5.1168   8.5741  10.8373  11.8295  14.2290  16.1007  17.8639  18.4875
    19.1514  20.0818  22.6864  25.3662  26.8623  27.8861  28.7240  30.2612
    31.1059  31.6161  32.2864  32.7351  35.2177  35.3818  35.8913  36.0310
    36.7762  39.7495  40.4685  40.5563

          k = 0.4420-0.2210 0.4420 (  1823 PWs)   bands (ev):

    -8.2699  -8.1703  -8.1694  -8.1104  -8.1092  -4.4671   0.3122   4.2114
     5.3852   8.6096  11.0485  11.5784  14.2406  16.1996  16.2887  18.1569
    19.6184  21.8197  22.6155  23.9888  25.9468  28.3250  29.6493  30.4210
    30.9606  31.4335  31.7354  33.3519  35.1833  35.7548  36.2604  36.3969
    37.5313  39.8012  40.7056  40.8261

          k = 0.3315-0.1105 0.3315 (  1839 PWs)   bands (ev):

    -8.2510  -8.1757  -8.1738  -8.1143  -8.1093  -5.1131   1.7046   4.4421
     5.8471   8.8282  11.2524  11.2803  12.6197  14.8393  16.2486  17.6451
    19.3579  21.8742  22.2716  24.8515  25.5879  26.0228  27.3677  30.2153
    31.0276  34.3319  34.4741  35.2389  35.5485  37.0856  37.9102  38.7419
    39.4863  39.9971  41.8759  42.1595

          k = 0.2210 0.0000 0.2210 (  1839 PWs)   bands (ev):

    -8.2246  -8.1841  -8.1807  -8.1144  -8.1104  -5.6951   3.4051   5.1897
     6.2896   8.8201  10.5761  10.7455  11.9229  14.7875  15.7527  16.2506
    18.5521  19.3704  22.0499  24.2584  25.3265  28.3630  29.3478  29.9100
    31.1795  33.9580  34.9204  37.5502  38.2990  38.7996  38.8312  39.9209
    40.0991  40.9301  41.9127  43.2850

          k = 0.0000 0.4420 0.0000 (  1828 PWs)   bands (ev):

    -8.2558  -8.1673  -8.1673  -8.1240  -8.1047  -5.2420   2.4562   4.8696
     4.8696   8.4664   9.7670  13.1584  13.1584  13.9221  17.7475  17.9219
    20.2848  20.2848  20.8307  24.9617  24.9617  26.6430  26.7798  27.9589
    33.8976  34.4328  34.4328  35.0542  36.1407  36.1407  37.3663  38.1840
    42.2372  42.7411  42.7411  42.8794

          k =-0.1105 0.5525-0.1105 (  1825 PWs)   bands (ev):

    -8.2744  -8.1609  -8.1591  -8.1264  -8.1027  -4.6950   1.2812   4.1334
     4.5394   8.5978   9.8202  12.9415  13.7458  16.0069  18.4650  18.6862
    20.4805  21.9650  22.3844  22.7096  23.8110  26.4343  26.6853  30.3245
    31.2651  31.7673  33.7351  34.0107  35.0817  35.5813  36.7853  38.1745
    39.9835  40.5243  41.6541  42.5739

          k = 0.6630-0.2210 0.6630 (  1821 PWs)   bands (ev):

    -8.2833  -8.1612  -8.1557  -8.1229  -8.1039  -4.1133   0.2736   3.3042
     4.5226   8.6826  11.2188  12.7272  13.4952  16.8814  18.6377  19.1220
    19.6370  20.7155  24.2158  25.2122  25.8873  27.1257  27.3308  27.5687
    29.4270  31.7425  32.1345  33.1011  34.4462  35.3238  36.1580  36.3895
    37.5123  38.5109  40.4008  41.7306

          k = 0.5525-0.1105 0.5525 (  1817 PWs)   bands (ev):

    -8.2806  -8.1644  -8.1581  -8.1165  -8.1088  -4.0197   0.1452   2.8860
     4.8204   8.8961  11.9579  12.9849  13.8591  15.0723  16.2985  19.1433
    21.2392  23.2589  23.3109  24.0888  27.0845  27.2810  28.4338  29.0487
    29.0917  31.4885  31.5806  32.2370  32.9190  34.3032  35.7757  36.3407
    37.3614  39.0797  40.5027  41.6224

          k = 0.4420 0.0000 0.4420 (  1829 PWs)   bands (ev):

    -8.2684  -8.1684  -8.1661  -8.1136  -8.1112  -4.5280   0.9023   3.1730
     5.3451   9.2386  12.1173  12.2059  12.3307  14.9172  16.8828  19.2244
    19.8833  20.9192  24.1026  25.0833  26.0670  26.8561  28.2854  28.9408
    30.3706  31.8861  32.6352  33.4955  33.7548  35.1993  36.0963  37.6756
    38.1683  41.7992  42.1367  42.1676

          k = 0.0000 0.6630 0.0000 (  1808 PWs)   bands (ev):

    -8.2906  -8.1492  -8.1492  -8.1334  -8.0996  -4.2793   0.6371   4.1391
     4.1391   7.9272   8.7664  15.2916  15.2916  15.8644  19.0030  20.0892
    21.7613  21.7613  23.0087  23.0087  23.2126  23.8524  24.7988  30.3875
    31.0819  31.0819  31.7020  33.7681  35.2940  35.6199  35.6199  38.6292
    40.7219  40.7219  40.8455  42.8966

          k = 0.7735-0.1105 0.7735 (  1806 PWs)   bands (ev):

    -8.2971  -8.1484  -8.1453  -8.1329  -8.0996  -3.8211   0.0004   3.4331
     4.0536   8.1700   9.1499  15.0110  15.5337  17.2381  19.1030  19.4474
    20.8466  21.8111  23.2375  23.8192  25.2254  25.4440  26.7331  27.1100
    29.0848  29.2991  31.2287  32.2133  35.6569  36.1413  36.6887  38.2958
    39.4590  40.1259  40.7353  41.8085

          k = 0.6630 0.0000 0.6630 (  1822 PWs)   bands (ev):

    -8.2918  -8.1558  -8.1486  -8.1259  -8.1044  -3.6980  -0.0837   2.6754
     4.3033   8.4315  11.1394  14.4764  14.6158  15.1557  17.1186  20.7691
    22.1535  23.0044  23.0932  24.4946  24.5980  27.4140  27.9749  28.3228
    28.5175  29.1879  30.8270  31.8398  32.8338  35.2397  36.4641  37.2521
    37.8787  40.1271  40.9027  41.3556

          k = 0.0000-0.8840 0.0000 (  1772 PWs)   bands (ev):

    -8.3032  -8.1413  -8.1413  -8.1375  -8.0970  -3.6627  -0.2707   3.8829
     3.8829   7.9150   8.1289  16.7242  16.7242  17.4441  19.8145  19.9854
    19.9854  20.1233  22.1734  25.9932  26.4729  26.4729  26.5926  26.6313
    26.8307  26.8307  28.2613  35.2499  36.4541  36.4541  37.6739  39.5250
    39.5250  40.5553  40.6791  41.4288

          k =-0.2210 0.4420 0.0000 (  1833 PWs)   bands (ev):

    -8.2574  -8.1710  -8.1681  -8.1202  -8.1063  -5.0472   1.8642   4.1489
     5.2610   9.5681  10.0235  11.8485  12.8682  14.9837  17.4806  17.9490
    19.5727  21.2005  22.2003  23.9542  25.2208  26.7532  28.2769  29.7240
    30.1798  32.4257  33.7158  34.8471  37.0680  38.1547  38.6207  38.8546
    39.3773  39.9752  41.3126  41.5360

          k = 0.5525-0.3315 0.7735 (  1820 PWs)   bands (ev):

    -8.2737  -8.1673  -8.1612  -8.1186  -8.1064  -4.4138   0.6541   3.4888
     4.8221   9.6003  10.6940  12.0287  13.4424  16.0424  17.3842  18.8060
    19.9371  21.7705  22.6565  24.7944  25.7963  27.2235  28.1600  29.5593
    30.3812  31.6663  32.4722  32.7660  33.6031  35.8184  36.4245  37.5171
    39.0180  39.7186  40.1214  40.6557

          k = 0.4420-0.2210 0.6630 (  1808 PWs)   bands (ev):

    -8.2797  -8.1666  -8.1585  -8.1159  -8.1075  -4.0594   0.0568   3.3134
     4.6193   9.5434  10.6492  12.8759  14.2064  15.0256  18.1424  18.7141
    19.2810  22.5992  23.7025  24.9386  26.1018  27.6568  28.5881  29.1525
    30.6416  31.1751  31.4606  32.0373  33.2780  35.3715  35.7715  36.0488
    36.7700  39.1162  39.9997  40.3418

          k = 0.6630-0.2210 0.8840 (  1821 PWs)   bands (ev):

    -8.2865  -8.1572  -8.1513  -8.1277  -8.1023  -4.1645   0.5010   3.5028
     4.0753   9.1314   9.6907  12.7913  15.2077  16.5303  18.3833  19.9168
    20.7903  21.5912  22.3090  23.6061  25.1768  26.2946  27.0941  28.7447
    29.6450  30.9945  32.7095  33.4420  34.0731  34.5267  36.1364  37.9101
    38.9907  39.8639  40.2266  41.6687

          k = 0.5525-0.1105 0.7735 (  1819 PWs)   bands (ev):

    -8.2890  -8.1599  -8.1487  -8.1239  -8.1053  -3.7660   0.0150   2.8742
     3.8953   9.4876  11.2155  12.4004  14.3692  15.9710  18.7676  19.4720
    20.8001  22.7745  23.7403  24.6968  25.4986  26.8263  27.5792  28.3767
    29.2412  30.2385  31.3754  32.3807  33.4968  34.3069  34.8576  36.7977
    37.8596  38.3521  39.4687  41.2305

          k = 0.4420 0.0000 0.6630 (  1823 PWs)   bands (ev):

    -8.2837  -8.1640  -8.1524  -8.1196  -8.1082  -3.9067   0.1839   2.7290
     4.2395   9.8421  11.7389  11.9387  14.2480  15.2367  16.9930  20.6060
    21.0436  22.0327  23.5870  24.5194  27.1326  27.2633  27.7967  28.6859
    28.7461  30.6111  31.7920  32.6740  32.8941  34.8667  35.2229  35.4223
    37.5681  37.8318  40.4749  41.9675

          k =-0.2210-0.8840 0.0000 (  1810 PWs)   bands (ev):

    -8.2974  -8.1506  -8.1446  -8.1303  -8.1013  -3.6331  -0.1830   3.4062
     3.4984   9.0300   9.2508  14.6779  14.8688  17.5311  18.8603  19.9198
    20.1512  23.1858  24.1040  24.3573  24.9645  25.1744  25.8069  28.7889
    29.3378  29.4452  29.9857  31.7664  33.2265  35.9306  36.6112  38.2672
    39.4218  39.9364  40.0801  41.7643

          k =-0.4420-0.8840 0.0000 (  1800 PWs)   bands (ev):

    -8.2901  -8.1606  -8.1457  -8.1228  -8.1066  -3.6029  -0.0836   3.0061
     3.1925  11.1565  11.1963  11.9377  12.5224  17.5985  18.8144  19.8720
    20.3375  23.3484  24.3785  24.3992  24.9860  26.2418  27.7356  28.1516
    29.8335  31.1444  31.4353  33.2497  33.3583  33.5718  33.8316  34.1753
    34.9014  40.7739  41.6696  41.8523

     highest occupied, lowest unoccupied level (ev):     6.5685    7.0149

!    total energy              =    -188.99596726 Ry
     estimated scf accuracy    <          1.2E-12 Ry

     The total energy is the sum of the following terms:
     one-electron contribution =    -118.68794422 Ry
     hartree contribution      =      74.91186027 Ry
     xc contribution           =     -52.25405388 Ry
     ewald contribution        =     -92.96582943 Ry

     total magnetization       =    -0.00 Bohr mag/cell
     absolute magnetization    =     0.00 Bohr mag/cell

     convergence has been achieved in  10 iterations


     Computing stress (Cartesian axis) and pressure

          total   stress  (Ry/bohr**3)                   (kbar)     P=       -4.13
  -0.00002811   0.00000000  -0.00000000           -4.13        0.00       -0.00
   0.00000000  -0.00002811  -0.00000000            0.00       -4.13       -0.00
  -0.00000000   0.00000000  -0.00002811           -0.00        0.00       -4.13


     Writing all to output data dir ./outdir/GaAs.save/ :
     XML data file, charge density, pseudopotentials, collected wavefunctions

     init_run     :      7.73s CPU      7.89s WALL (       2 calls)
     electrons    :    512.60s CPU    520.48s WALL (       7 calls)
     update_pot   :      0.46s CPU      0.47s WALL (       4 calls)
     stress       :     22.52s CPU     23.29s WALL (       7 calls)

     Called by init_run:
     wfcinit      :      5.35s CPU      5.41s WALL (       2 calls)
     potinit      :      0.51s CPU      0.53s WALL (       3 calls)
     hinit0       :      1.69s CPU      1.70s WALL (       2 calls)

     Called by electrons:
     c_bands      :    431.67s CPU    435.39s WALL (      62 calls)
     sum_band     :     66.97s CPU     69.47s WALL (      62 calls)
     v_of_rho     :      7.33s CPU      7.40s WALL (      67 calls)
     newd         :      7.10s CPU      8.88s WALL (      67 calls)
     mix_rho      :      0.59s CPU      0.60s WALL (      62 calls)

     Called by c_bands:
     init_us_2    :      4.28s CPU      4.34s WALL (    7714 calls)
     cegterg      :    426.66s CPU    430.32s WALL (    3596 calls)

     Called by *egterg:
     cdiaghg      :     20.04s CPU     20.20s WALL (   11727 calls)
     h_psi        :    245.55s CPU    248.00s WALL (   12249 calls)
     s_psi        :     13.69s CPU     13.81s WALL (   12249 calls)
     g_psi        :      2.66s CPU      2.68s WALL (    8537 calls)

     Called by h_psi:
     h_psi:calbec :     16.99s CPU     17.13s WALL (   12249 calls)
     vloc_psi     :    214.03s CPU    216.23s WALL (   12249 calls)
                                        0.00s GPU  (   12249 calls)
     add_vuspsi   :     13.75s CPU     13.86s WALL (   12249 calls)

     General routines
     calbec       :     34.14s CPU     34.41s WALL (   21123 calls)
     fft          :      3.37s CPU      3.41s WALL (    1814 calls)
     ffts         :      0.14s CPU      0.14s WALL (     258 calls)
     fftw         :    223.92s CPU    226.27s WALL (  745282 calls)
     interpolate  :      0.35s CPU      0.35s WALL (     134 calls)


     PWSCF        :   9m 4.18s CPU   9m13.15s WALL


   This run was terminated on:  20:26:57   9Dec2025            

=------------------------------------------------------------------------------=
   JOB DONE.
=------------------------------------------------------------------------------=
